
Running Job 1 of 2 mol.qin
qchem mol.qin_43619.0 /tmp/qchem43619/ 1
/global/common/cori/software/qchem/5.2/exe/qcprog.exe_s mol.qin_43619.0 /tmp/qchem43619/
                  Welcome to Q-Chem
     A Quantum Leap Into The Future Of Chemistry


 Q-Chem 5.2, Q-Chem, Inc., Pleasanton, CA (2019)

 License issued to: National Energy Research Scientific Computing Center

 Yihan Shao,  Zhengting Gan,  E. Epifanovsky,  A. T. B. Gilbert,  M. Wormit,  
 J. Kussmann,  A. W. Lange,  A. Behn,  Jia Deng,  Xintian Feng,  D. Ghosh,  
 M. Goldey,  P. R. Horn,  L. D. Jacobson,  I. Kaliman,  T. Kus,  A. Landau,  
 Jie Liu,  E. I. Proynov,  R. M. Richard,  R. P. Steele,  E. J. Sundstrom,  
 H. L. Woodcock III,  P. M. Zimmerman,  D. Zuev,  B. Albrecht,  E. Alguire,  
 S. A. Baeppler,  D. Barton,  Z. Benda,  Y. A. Bernard,  E. J. Berquist,  
 K. B. Bravaya,  H. Burton,  D. Casanova,  Chun-Min Chang,  Yunqing Chen,  
 A. Chien,  K. D. Closser,  M. P. Coons,  S. Coriani,  S. Dasgupta,  
 A. L. Dempwolff,  M. Diedenhofen,  Hainam Do,  R. G. Edgar,  Po-Tung Fang,  
 S. Faraji,  S. Fatehi,  Qingguo Feng,  K. D. Fenk,  J. Fosso-Tande,  
 J. Gayvert,  Qinghui Ge,  A. Ghysels,  G. Gidofalvi,  J. Gomes,  
 J. Gonthier,  A. Gunina,  D. Hait,  M. W. D. Hanson-Heine,  
 P. H. P. Harbach,  A. W. Hauser,  M. F. Herbst,  J. E. Herr,  
 E. G. Hohenstein,  Z. C. Holden,  Kerwin Hui,  B. C. Huynh,  T.-C. Jagau,  
 Hyunjun Ji,  B. Kaduk,  K. Khistyaev,  Jaehoon Kim,  P. Klunzinger,  K. Koh,  
 D. Kosenkov,  L. Koulias,  T. Kowalczyk,  C. M. Krauter,  A. Kunitsa,  
 Ka Un Lao,  A. Laurent,  K. V. Lawler,  Joonho Lee,  D. Lefrancois,  
 S. Lehtola,  D. S. Levine,  Yi-Pei Li,  You-Sheng Lin,  Fenglai Liu,  
 E. Livshits,  A. Luenser,  P. Manohar,  E. Mansoor,  S. F. Manzer,  
 Shan-Ping Mao,  Yuezhi Mao,  N. Mardirossian,  A. V. Marenich,  
 T. Markovich,  L. A. Martinez-Martinez,  S. A. Maurer,  N. J. Mayhall,  
 S. C. McKenzie,  J.-M. Mewes,  P. Morgante,  A. F. Morrison,  
 J. W. Mullinax,  K. Nanda,  T. S. Nguyen-Beck,  R. Olivares-Amaya,  
 J. A. Parkhill,  Zheng Pei,  T. M. Perrine,  F. Plasser,  P. Pokhilko,  
 S. Prager,  A. Prociuk,  E. Ramos,  D. R. Rehn,  F. Rob,  M. Scheurer,  
 M. Schneider,  N. Sergueev,  S. M. Sharada,  S. Sharma,  D. W. Small,  
 T. Stauch,  T. Stein,  Yu-Chuan Su,  A. J. W. Thom,  A. Tkatchenko,  
 T. Tsuchimochi,  N. M. Tubman,  L. Vogt,  M. L. Vidal,  O. Vydrov,  
 M. A. Watson,  J. Wenzel,  M. de Wergifosse,  T. A. Wesolowski,  A. White,  
 J. Witte,  A. Yamada,  Jun Yang,  K. Yao,  S. Yeganeh,  S. R. Yost,  
 Zhi-Qiang You,  A. Zech,  Igor Ying Zhang,  Xing Zhang,  Yan Zhao,  
 Ying Zhu,  B. R. Brooks,  G. K. L. Chan,  C. J. Cramer,  M. S. Gordon,  
 W. J. Hehre,  A. Klamt,  M. W. Schmidt,  C. D. Sherrill,  D. G. Truhlar,  
 A. Aspuru-Guzik,  R. Baer,  A. T. Bell,  N. A. Besley,  Jeng-Da Chai,  
 A. E. DePrince, III,  R. A. DiStasio Jr.,  A. Dreuw,  B. D. Dunietz,  
 T. R. Furlani,  Chao-Ping Hsu,  Yousung Jung,  Jing Kong,  D. S. Lambrecht,  
 WanZhen Liang,  C. Ochsenfeld,  V. A. Rassolov,  L. V. Slipchenko,  
 J. E. Subotnik,  T. Van Voorhis,  J. M. Herbert,  A. I. Krylov,  
 P. M. W. Gill,  M. Head-Gordon

 Contributors to earlier versions of Q-Chem not listed above: 
 R. D. Adamson,  B. Austin,  J. Baker,  G. J. O. Beran,  K. Brandhorst,  
 S. T. Brown,  E. F. C. Byrd,  A. K. Chakraborty,  C.-L. Cheng,  
 Siu Hung Chien,  D. M. Chipman,  D. L. Crittenden,  H. Dachsel,  
 R. J. Doerksen,  A. D. Dutoi,  L. Fusti-Molnar,  W. A. Goddard III,  
 A. Golubeva-Zadorozhnaya,  S. R. Gwaltney,  G. Hawkins,  A. Heyden,  
 S. Hirata,  G. Kedziora,  F. J. Keil,  C. Kelley,  Jihan Kim,  R. A. King,  
 R. Z. Khaliullin,  P. P. Korambath,  W. Kurlancheek,  A. M. Lee,  M. S. Lee,  
 S. V. Levchenko,  Ching Yeh Lin,  D. Liotard,  R. C. Lochan,  I. Lotan,  
 P. E. Maslen,  N. Nair,  D. P. O'Neill,  D. Neuhauser,  E. Neuscamman,  
 C. M. Oana,  R. Olson,  B. Peters,  R. Peverati,  P. A. Pieniazek,  
 Y. M. Rhee,  J. Ritchie,  M. A. Rohrdanz,  E. Rosta,  N. J. Russ,  
 H. F. Schaefer III,  N. E. Schultz,  N. Shenvi,  A. C. Simmonett,  A. Sodt,  
 D. Stuck,  K. S. Thanthiriwatte,  V. Vanovschi,  Tao Wang,  A. Warshel,  
 C. F. Williams,  Q. Wu,  X. Xu,  W. Zhang

 Please cite Q-Chem as follows:
 Y. Shao et al., Mol. Phys. 113, 184-215 (2015)
 DOI: 10.1080/00268976.2014.952696

 Q-Chem 5.2.0 for Intel X86 EM64T Linux

 Parts of Q-Chem use Armadillo 8.300.2 (Tropical Shenanigans).
 http://arma.sourceforge.net/

 Q-Chem begins on Wed Oct  2 14:51:04 2019  

Host: cori01
0

     Scratch files written to /tmp/qchem43619//
 May1019 |scratch|qcdevops|jenkins|workspace|build_RNUM -1
Processing $rem in /global/common/cori/software/qchem/5.2/config/preferences:
	 MEM_TOTAL  96000 
NAlpha2: 50
NElect   50
Mult     1
Symmetry turned off for PCM/SM12/SMD calculation

Checking the input file for inconsistencies... 	...done.

--------------------------------------------------------------
User input:
--------------------------------------------------------------
$molecule
-1 1
O     -0.6476427742      0.0451255314      1.1759171873
C     -0.6654528561     -0.2666716788     -0.0616205134
O      0.4346164379     -0.5211121279     -0.7333781076
O     -1.7780990448     -0.3548391483     -0.6856968353
Li     -2.4968064413      0.1498961019      0.9551913255
C      1.8207481624     -0.1583613240     -0.0393167322
C      2.2240280939      1.2262215839     -0.1247103681
H      1.6582560157     -0.5527481178      0.9645954778
H      2.4399273726     -0.8503755560     -0.6161559382
H      3.0396900039      1.4752155957     -0.8042605300
H      2.1736771143      1.8319329392      0.7806261837
$end

$rem
job_type = freq
basis = def2-tzvppd
max_scf_cycles = 200
gen_scfman = true
xc_grid = 3
scf_algorithm = diis
resp_charges = true
symmetry = false
sym_ignore = true
method = wb97xv
geom_opt_max_cycles = 200
solvent_method = smd
ideriv = 1
thresh = 14
$end

$smx
solvent other
$end

--------------------------------------------------------------
 ----------------------------------------------------------------
             Standard Nuclear Orientation (Angstroms)
    I     Atom           X                Y                Z
 ----------------------------------------------------------------
    1      O      -0.6476427742     0.0451255314     1.1759171873
    2      C      -0.6654528561    -0.2666716788    -0.0616205134
    3      O       0.4346164379    -0.5211121279    -0.7333781076
    4      O      -1.7780990448    -0.3548391483    -0.6856968353
    5      Li     -2.4968064413     0.1498961019     0.9551913255
    6      C       1.8207481624    -0.1583613240    -0.0393167322
    7      C       2.2240280939     1.2262215839    -0.1247103681
    8      H       1.6582560157    -0.5527481178     0.9645954778
    9      H       2.4399273726    -0.8503755560    -0.6161559382
   10      H       3.0396900039     1.4752155957    -0.8042605300
   11      H       2.1736771143     1.8319329392     0.7806261837
 ----------------------------------------------------------------
 Nuclear Repulsion Energy =         252.13144405 hartrees
 There are       25 alpha and       25 beta electrons
 Requested basis set is def2-TZVPPD
 There are 119 shells and 321 basis functions

 Total QAlloc Memory Limit  96000 MB
 Mega-Array Size       188 MB
 MEM_STATIC part       192 MB
 
 Citation of the SMD model:
 Marenich, A.V.; Cramer, C.J.; Truhlar, D.G.
 J. Phys. Chem. B 2009, 113, 6378-6396.
 iSolventCode=           0
 Solvent: other                                                           
 
 vradii
            1           2           3           4           5           6
    1   2.2940000   1.8500000   2.2940000   2.2940000   2.1476001   1.8500000
            7           8           9          10          11
    1   1.8500000   1.2000000   1.2000000   1.2000000   1.2000000
 Changing PCM_VDW_RADII to SMD_RADIUS
 Discretize the solute cavity surface with Lebedev spheres
	Using 110 Lebedev grid points for each H atom
	Using 194 Lebedev grid points for other atoms
	Atomic van der Waals radii will be scaled by 1.20
 Remove points where switching function is < 1.0e-08
 Keep 818 surface tesserae and discard 980 interior tesserae
 Molecular Surface Area = 158.133 Angst**2

                       Distance Matrix (Angstroms)
             O (  1)   C (  2)   O (  3)   O (  4)   Li(  5)   C (  6)
   C (  2)  1.276336
   O (  3)  2.266565  1.313831
   O (  4)  2.214387  1.278760  2.219466
   Li(  5)  1.865235  2.135718  3.448878  1.861132
   C (  6)  2.758832  2.488659  1.592065  3.661709  4.441323
   C (  7)  3.366469  3.252970  2.574033  4.339525  4.960942  1.444644
   H (  8)  2.391501  2.556283  2.093182  3.817220  4.214065  1.090772
   H (  9)  3.680562  3.208053  2.035541  4.247604  5.276459  1.093165
   H ( 10)  4.422972  4.160982  3.282797  5.155022  5.958602  2.177047
   H ( 11)  3.362853  3.629625  3.294444  4.748538  4.967206  2.181315
             C (  7)   H (  8)   H (  9)   H ( 10)
   H (  8)  2.161346
   H (  9)  2.144851  1.788398
   H ( 10)  1.090454  3.024872  2.409040
   H ( 11)  1.090438  2.446673  3.035897  1.840949
 
 A cutoff of  1.0D-14 yielded   6765 shell pairs
 There are     49983 function pairs (     63653 Cartesian)
 Smallest overlap matrix eigenvalue = 1.11E-05
 Guess from superposition of atomic densities
 Warning:  Energy on first SCF cycle will be non-variational
 SAD guess density has 48.090450 electrons

 -----------------------------------------------------------------------
  General SCF calculation program by
  Eric Jon Sundstrom, Paul Horn, Yuezhi Mao, Dmitri Zuev, Alec White,
  David Stuck, Shaama M.S., Shane Yost, Joonho Lee, David Small,
  Daniel Levine, Susi Lehtola, Hugh Burton, Evgeny Epifanovsky
 -----------------------------------------------------------------------
 Exchange:     0.1670 Hartree-Fock + 1.0000 wB97X-V + LR-HF
 Correlation:  1.0000 wB97X-V
 Using SG-3 standard quadrature grid
 Nonlocal Correlation:  VV10 with C = 0.0100 and b = 6.00 and scale = 1.00000
 Grid used for NLC:  SG-1 standard quadrature
 
 Citation of the SMD model:
 Marenich, A.V.; Cramer, C.J.; Truhlar, D.G.
 J. Phys. Chem. B 2009, 113, 6378-6396.
 iSolventCode=           0
 Solvent: other                                                           
 
 vradii
            1           2           3           4           5           6
    1   2.2940000   1.8500000   2.2940000   2.2940000   2.1476001   1.8500000
            7           8           9          10          11
    1   1.8500000   1.2000000   1.2000000   1.2000000   1.2000000
 using 32 threads for integral computing
 -------------------------------------------------------
 OpenMP Integral computing Module                
 Release: version 1.0, May 2013, Q-Chem Inc. Pittsburgh 
 -------------------------------------------------------
 using 32 threads for integral computing
 -------------------------------------------------------
 OpenMP Integral computing Module                
 Release: version 1.0, May 2013, Q-Chem Inc. Pittsburgh 
 -------------------------------------------------------
 -------------------------------------------------------
 OpenMP BLAS3 based DFT computing Module                
 Release: version 1.0, May 2013, Q-Chem Inc. Pittsburgh 
 -------------------------------------------------------
 -------------------------------------------------------
 OpenMP BLAS3 based DFT computing Module                
 Release: version 1.0, May 2013, Q-Chem Inc. Pittsburgh 
 -------------------------------------------------------
 -------------------------------------------------------
 OpenMP BLAS3 based DFT computing Module                
 Release: version 1.0, May 2013, Q-Chem Inc. Pittsburgh 
 -------------------------------------------------------
 A restricted SCF calculation will be
 performed using DIIS
 SCF converges when DIIS error is below 1.0e-08
 ---------------------------------------
  Cycle       Energy         DIIS error
 ---------------------------------------
    1    -348.9002961918      2.53e-02  
    2    -349.1008279716      1.06e-02  
    3    -349.6535966997      7.36e-03  
    4    -350.0897739480      6.89e-04  
    5    -350.0950584970      3.43e-04  
    6    -350.0966138087      1.35e-04  
    7    -350.0969834755      5.15e-05  
    8    -350.0971114887      1.42e-05  
    9    -350.0971257064      6.38e-06  
   10    -350.0971272460      2.04e-06  
   11    -350.0971274784      8.14e-07  
   12    -350.0971275206      5.85e-07  
   13    -350.0971275313      1.71e-07  
   14    -350.0971275339      4.75e-08  
   15    -350.0971275341      2.11e-08  
   16    -350.0971275341      7.64e-09  Convergence criterion met
 ---------------------------------------
 SCF time:   CPU 1653.21s  wall 62.00s 
(3)  G-ENP(liq) elect-nuc-pol free energy of system     -350.097127534 a.u.
(4)  G-CDS(liq) cavity-dispersion-solvent structure 
     free energy                                               -1.7246 kcal/mol
(6)  G-S(liq) free energy of system                     -350.099875873 a.u.
 SCF   energy in the final basis set =     -350.0971275341
 Total energy in the final basis set =     -350.0998758733
 
 --------------------------------------------------------------
 
                    Orbital Energies (a.u.)
 --------------------------------------------------------------
 
 Alpha MOs
 -- Occupied --
-19.1793 -19.1410 -19.1380 -10.3750 -10.2698 -10.1646  -2.0662  -1.1878
 -1.0803  -1.0481  -0.8246  -0.6811  -0.5999  -0.5581  -0.5451  -0.5337
 -0.4991  -0.4594  -0.4248  -0.3980  -0.3819  -0.3592  -0.3482  -0.3366
 -0.2208
 -- Virtual --
  0.0390   0.0552   0.0560   0.0645   0.1008   0.1118   0.1206   0.1274
  0.1431   0.1472   0.1524   0.1547   0.1625   0.1689   0.1735   0.1799
  0.1890   0.1986   0.2098   0.2214   0.2249   0.2376   0.2513   0.2610
  0.2668   0.2768   0.2919   0.3018   0.3063   0.3124   0.3298   0.3345
  0.3483   0.3599   0.3659   0.3743   0.3755   0.3872   0.4005   0.4055
  0.4099   0.4169   0.4301   0.4315   0.4371   0.4423   0.4431   0.4519
  0.4660   0.4755   0.4797   0.4879   0.4959   0.4984   0.5054   0.5174
  0.5237   0.5336   0.5403   0.5462   0.5497   0.5685   0.5750   0.5881
  0.5917   0.6016   0.6084   0.6165   0.6222   0.6423   0.6495   0.6722
  0.6803   0.6925   0.7049   0.7140   0.7203   0.7331   0.7428   0.7583
  0.7689   0.7926   0.7957   0.8135   0.8193   0.8274   0.8404   0.8532
  0.8613   0.8682   0.8737   0.8970   0.9074   0.9187   0.9250   0.9362
  0.9826   0.9891   1.0123   1.0284   1.0302   1.0453   1.0659   1.0761
  1.0987   1.1115   1.1297   1.1582   1.1898   1.2166   1.2251   1.2476
  1.2678   1.2704   1.2909   1.3020   1.3162   1.3363   1.3508   1.3670
  1.3767   1.3964   1.4289   1.4614   1.4914   1.4942   1.5201   1.5638
  1.5658   1.5907   1.6168   1.6566   1.6756   1.7399   1.7547   1.8014
  1.8145   1.8621   1.8892   1.9227   1.9289   1.9557   1.9710   1.9798
  1.9905   2.0139   2.0595   2.0744   2.1240   2.1368   2.1967   2.2153
  2.2449   2.3100   2.3226   2.3636   2.3967   2.4437   2.4691   2.4905
  2.5252   2.5556   2.6295   2.6475   2.7556   2.8173   2.8428   2.8797
  2.9103   2.9475   2.9571   2.9920   3.0112   3.0231   3.0558   3.0798
  3.0964   3.1228   3.1930   3.2389   3.2442   3.2748   3.3001   3.3206
  3.3455   3.3562   3.3884   3.3963   3.4068   3.4221   3.4369   3.4546
  3.4885   3.5011   3.5305   3.5546   3.5697   3.6115   3.6154   3.6297
  3.6497   3.6561   3.6633   3.6952   3.7026   3.7148   3.7483   3.7991
  3.8648   3.8842   3.9147   3.9581   4.0304   4.0469   4.0691   4.1141
  4.1369   4.1634   4.2295   4.2412   4.2990   4.3204   4.3458   4.3996
  4.4212   4.4590   4.4909   4.5253   4.6968   4.7401   4.7763   4.8350
  4.8547   4.8856   4.9508   4.9554   5.0415   5.1074   5.1435   5.1668
  5.2370   5.3135   5.3226   5.3484   5.3576   5.3641   5.4190   5.4398
  5.4700   5.5133   5.5782   5.5904   5.6178   5.6287   5.6616   5.7142
  5.7451   5.7477   5.8404   5.8870   5.9612   6.0093   6.0146   6.0738
  6.1110   6.1909   6.2968   6.3009   6.3488   6.3570   6.4689   6.5303
  6.6290   6.6560   6.7336   6.7597   6.8082   6.8648   6.8956   6.9799
  7.0056   7.0894   7.1701   7.3156   7.4036   7.4565   7.5153   7.6359
  7.7250  14.8777  23.3621  23.6192  23.9012  44.2237  44.3635  44.5595
 --------------------------------------------------------------
 
          Ground-State Mulliken Net Atomic Charges

     Atom                 Charge (a.u.)
  ----------------------------------------
      1 O                    -0.803239
      2 C                     0.489096
      3 O                    -0.291771
      4 O                    -0.814750
      5 Li                    0.858053
      6 C                     0.335766
      7 C                    -1.188324
      8 H                     0.100798
      9 H                     0.065954
     10 H                     0.148633
     11 H                     0.099784
  ----------------------------------------
  Sum of atomic charges =    -1.000000

  Building new vdw surfaces
         Merz-Kollman RESP Net Atomic Charges

     Atom                 Charge (a.u.)
  ----------------------------------------
      1 O                    -0.756040
      2 C                     0.706016
      3 O                    -0.543123
      4 O                    -0.756040
      5 Li                    0.814732
      6 C                     0.698929
      7 C                    -1.732573
      8 H                    -0.032350
      9 H                    -0.032350
     10 H                     0.316399
     11 H                     0.316399
  ----------------------------------------
  Sum of atomic charges =    -1.000000

  Related Dipole Moment =    10.9836 (X -9.4619 Y -3.3257 Z  4.4778)

 -----------------------------------------------------------------
                    Cartesian Multipole Moments
 -----------------------------------------------------------------
    Charge (ESU x 10^10)
                -4.8032
    Dipole Moment (Debye)
         X      -9.6646      Y      -3.2874      Z       4.6593
       Tot      11.2214
    Quadrupole Moments (Debye-Ang)
        XX     -42.2818     XY     -12.8933     YY     -49.6252
        XZ     -10.5536     YZ       0.7372     ZZ     -46.4228
    Octopole Moments (Debye-Ang^2)
       XXX    -130.4795    XXY     -17.0844    XYY     -28.6821
       YYY     -26.1747    XXZ      30.8484    XYZ       2.5278
       YYZ       7.3983    XZZ     -20.3372    YZZ      -4.5074
       ZZZ       8.5425
    Hexadecapole Moments (Debye-Ang^3)
      XXXX    -663.5065   XXXY    -150.6085   XXYY    -167.9012
      XYYY    -102.9044   YYYY    -200.6652   XXXZ     -88.0770
      XXYZ       0.6436   XYYZ       8.1668   YYYZ      -0.5177
      XXZZ    -123.6792   XYZZ     -33.1981   YYZZ     -60.2211
      XZZZ       4.4534   YZZZ      -6.8507   ZZZZ    -169.4854
 -----------------------------------------------------------------
 Calculating analytic gradient of the SCF energy
 Gradient of CDS energy
            1           2           3           4           5           6
    1  -0.0001151  -0.0000031   0.0007498  -0.0005303  -0.0000346   0.0002664
    2   0.0001033  -0.0005148   0.0002497   0.0001007  -0.0000065  -0.0013768
    3   0.0001464  -0.0002892   0.0000519   0.0001987   0.0000219   0.0001616
            7           8           9          10          11
    1   0.0005673  -0.0004280  -0.0002897  -0.0001710  -0.0000116
    2   0.0014608   0.0002751   0.0001151  -0.0001916  -0.0002150
    3  -0.0000409  -0.0000461  -0.0001589   0.0001222  -0.0001676
 Gradient of SCF Energy
            1           2           3           4           5           6
    1   0.0025202   0.0226288  -0.0397051   0.0082754  -0.0114485   0.0567601
    2   0.0004194   0.0165844  -0.0009379   0.0000563  -0.0004877  -0.0610457
    3  -0.0055763  -0.0139848  -0.0020780   0.0000391   0.0055780   0.0303908
            7           8           9          10          11
    1   0.0881893   0.0006006  -0.0210452  -0.0775840  -0.0291915
    2   0.0366630   0.0117007   0.0243559  -0.0040443  -0.0232641
    3   0.0423582  -0.0317773   0.0249584   0.0268207  -0.0767289
 Max gradient component =       8.819E-02
 RMS gradient           =       3.414E-02
 Computing fast CPCM-SWIG gradient
 Updating gradient with PCM contributions...
 -- total gradient after adding PCM contribution --
---------------------------------------------------
  Atom         X              Y              Z     
---------------------------------------------------
   1      -0.000080      -0.000037       0.000145
   2       0.000243       0.000100      -0.000226
   3      -0.000399      -0.000254      -0.000017
   4      -0.000130       0.000030       0.000059
   5       0.000039      -0.000020      -0.000042
   6       0.000490       0.000267       0.000237
   7      -0.000177      -0.000097      -0.000107
   8       0.000009       0.000019      -0.000049
   9      -0.000042       0.000008      -0.000032
  10       0.000043      -0.000017       0.000049
  11       0.000004      -0.000001      -0.000016
---------------------------------------------------
 Number of fixed atoms: 0
 Gradient time:  CPU 316.99 s  wall 15.35 s
 ######################################################
 ######################################################
 # Starting finite difference calculation for IDERIV  #
 Finite diff step size:  1.88973e-03 a.u.
 ----------------------------------------------------------------
             Standard Nuclear Orientation (Angstroms)
    I     Atom           X                Y                Z
 ----------------------------------------------------------------
    1      O      -0.6466427742     0.0451255314     1.1759171873
    2      C      -0.6654528561    -0.2666716788    -0.0616205134
    3      O       0.4346164379    -0.5211121279    -0.7333781076
    4      O      -1.7780990448    -0.3548391483    -0.6856968353
    5      Li     -2.4968064413     0.1498961019     0.9551913255
    6      C       1.8207481624    -0.1583613240    -0.0393167322
    7      C       2.2240280939     1.2262215839    -0.1247103681
    8      H       1.6582560157    -0.5527481178     0.9645954778
    9      H       2.4399273726    -0.8503755560    -0.6161559382
   10      H       3.0396900039     1.4752155957    -0.8042605300
   11      H       2.1736771143     1.8319329392     0.7806261837
 ----------------------------------------------------------------
 Nuclear Repulsion Energy =         252.13359413 hartrees
 There are       25 alpha and       25 beta electrons
 Discretize the solute cavity surface with Lebedev spheres
	Using 110 Lebedev grid points for each H atom
	Using 194 Lebedev grid points for other atoms
	Atomic van der Waals radii will be scaled by 1.20
 Remove points where switching function is < 1.0e-08
 Keep 818 surface tesserae and discard 980 interior tesserae
 Molecular Surface Area = 158.132 Angst**2

                       Distance Matrix (Angstroms)
             O (  1)   C (  2)   O (  3)   O (  4)   Li(  5)   C (  6)
   C (  2)  1.276351
   O (  3)  2.266088  1.313831
   O (  4)  2.214898  1.278760  2.219466
   Li(  5)  1.866227  2.135718  3.448878  1.861132
   C (  6)  2.757937  2.488659  1.592065  3.661709  4.441323
   C (  7)  3.365616  3.252970  2.574033  4.339525  4.960942  1.444644
   H (  8)  2.390537  2.556283  2.093182  3.817220  4.214065  1.090772
   H (  9)  3.679723  3.208053  2.035541  4.247604  5.276459  1.093165
   H ( 10)  4.422139  4.160982  3.282797  5.155022  5.958602  2.177047
   H ( 11)  3.362014  3.629625  3.294444  4.748538  4.967206  2.181315
             C (  7)   H (  8)   H (  9)   H ( 10)
   H (  8)  2.161346
   H (  9)  2.144851  1.788398
   H ( 10)  1.090454  3.024872  2.409040
   H ( 11)  1.090438  2.446673  3.035897  1.840949
 
 Requested basis set is def2-TZVPPD
 There are 119 shells and 321 basis functions
 A cutoff of  1.0D-14 yielded   6765 shell pairs
 There are     49983 function pairs (     63653 Cartesian)
 Smallest overlap matrix eigenvalue = 1.11E-05
 Guess MOs from SCF MO coefficient file

 -----------------------------------------------------------------------
  General SCF calculation program by
  Eric Jon Sundstrom, Paul Horn, Yuezhi Mao, Dmitri Zuev, Alec White,
  David Stuck, Shaama M.S., Shane Yost, Joonho Lee, David Small,
  Daniel Levine, Susi Lehtola, Hugh Burton, Evgeny Epifanovsky
 -----------------------------------------------------------------------
 Exchange:     0.1670 Hartree-Fock + 1.0000 wB97X-V + LR-HF
 Correlation:  1.0000 wB97X-V
 Using SG-3 standard quadrature grid
 Nonlocal Correlation:  VV10 with C = 0.0100 and b = 6.00 and scale = 1.00000
 Grid used for NLC:  SG-1 standard quadrature
 
 Citation of the SMD model:
 Marenich, A.V.; Cramer, C.J.; Truhlar, D.G.
 J. Phys. Chem. B 2009, 113, 6378-6396.
 iSolventCode=           0
 Solvent: other                                                           
 
 vradii
            1           2           3           4           5           6
    1   2.2940000   1.8500000   2.2940000   2.2940000   2.1476001   1.8500000
            7           8           9          10          11
    1   1.8500000   1.2000000   1.2000000   1.2000000   1.2000000
 using 32 threads for integral computing
 -------------------------------------------------------
 OpenMP Integral computing Module                
 Release: version 1.0, May 2013, Q-Chem Inc. Pittsburgh 
 -------------------------------------------------------
 using 32 threads for integral computing
 -------------------------------------------------------
 OpenMP Integral computing Module                
 Release: version 1.0, May 2013, Q-Chem Inc. Pittsburgh 
 -------------------------------------------------------
 -------------------------------------------------------
 OpenMP BLAS3 based DFT computing Module                
 Release: version 1.0, May 2013, Q-Chem Inc. Pittsburgh 
 -------------------------------------------------------
 -------------------------------------------------------
 OpenMP BLAS3 based DFT computing Module                
 Release: version 1.0, May 2013, Q-Chem Inc. Pittsburgh 
 -------------------------------------------------------
 -------------------------------------------------------
 OpenMP BLAS3 based DFT computing Module                
 Release: version 1.0, May 2013, Q-Chem Inc. Pittsburgh 
 -------------------------------------------------------
 A restricted SCF calculation will be
 performed using Roothaan-Hall, DIIS
 SCF converges when DIIS error is below 1.0e-08
 ---------------------------------------
  Cycle       Energy         DIIS error
 ---------------------------------------
    1    -350.0973437878      5.38e-06  Roothaan Step
 ---------------------------------------
  Cycle       Energy         DIIS error
 ---------------------------------------
    1    -350.0971271421      1.42e-06  
    2    -350.0971271534      1.42e-06  
    3    -350.0971271705      2.73e-07  
    4    -350.0971271716      5.22e-08  
    5    -350.0971271717      2.03e-08  
    6    -350.0971271717      6.62e-09  Convergence criterion met
 ---------------------------------------
 SCF time:   CPU 728.95s  wall 26.00s 
(3)  G-ENP(liq) elect-nuc-pol free energy of system     -350.097127172 a.u.
(4)  G-CDS(liq) cavity-dispersion-solvent structure 
     free energy                                               -1.7247 kcal/mol
(6)  G-S(liq) free energy of system                     -350.099875728 a.u.
 SCF   energy in the final basis set =     -350.0971271717
 Total energy in the final basis set =     -350.0998757277
 
 --------------------------------------------------------------
 
                    Orbital Energies (a.u.)
 --------------------------------------------------------------
 
 Alpha MOs
 -- Occupied --
-19.1792 -19.1410 -19.1380 -10.3750 -10.2697 -10.1646  -2.0663  -1.1877
 -1.0803  -1.0481  -0.8246  -0.6811  -0.5999  -0.5581  -0.5451  -0.5337
 -0.4991  -0.4594  -0.4248  -0.3980  -0.3818  -0.3592  -0.3482  -0.3366
 -0.2208
 -- Virtual --
  0.0390   0.0551   0.0560   0.0645   0.1009   0.1118   0.1206   0.1274
  0.1431   0.1472   0.1524   0.1547   0.1625   0.1689   0.1735   0.1799
  0.1890   0.1986   0.2098   0.2214   0.2249   0.2376   0.2513   0.2610
  0.2668   0.2768   0.2919   0.3018   0.3063   0.3124   0.3298   0.3345
  0.3483   0.3600   0.3659   0.3743   0.3755   0.3872   0.4005   0.4055
  0.4099   0.4169   0.4301   0.4314   0.4372   0.4423   0.4431   0.4519
  0.4660   0.4755   0.4797   0.4879   0.4959   0.4984   0.5054   0.5174
  0.5237   0.5336   0.5403   0.5462   0.5497   0.5685   0.5750   0.5881
  0.5917   0.6016   0.6084   0.6165   0.6222   0.6423   0.6495   0.6722
  0.6803   0.6925   0.7049   0.7140   0.7203   0.7330   0.7428   0.7583
  0.7690   0.7926   0.7958   0.8135   0.8194   0.8274   0.8404   0.8532
  0.8613   0.8681   0.8737   0.8969   0.9074   0.9187   0.9249   0.9361
  0.9826   0.9890   1.0124   1.0284   1.0302   1.0453   1.0659   1.0761
  1.0987   1.1115   1.1297   1.1582   1.1897   1.2166   1.2252   1.2476
  1.2678   1.2704   1.2909   1.3021   1.3162   1.3363   1.3509   1.3670
  1.3766   1.3964   1.4289   1.4614   1.4914   1.4942   1.5201   1.5638
  1.5659   1.5907   1.6169   1.6566   1.6757   1.7399   1.7547   1.8014
  1.8145   1.8621   1.8892   1.9227   1.9289   1.9558   1.9709   1.9799
  1.9903   2.0140   2.0596   2.0744   2.1240   2.1365   2.1968   2.2153
  2.2449   2.3099   2.3227   2.3635   2.3967   2.4437   2.4691   2.4905
  2.5253   2.5556   2.6295   2.6475   2.7556   2.8173   2.8428   2.8797
  2.9104   2.9475   2.9571   2.9920   3.0112   3.0231   3.0559   3.0799
  3.0965   3.1228   3.1931   3.2390   3.2443   3.2749   3.3000   3.3207
  3.3455   3.3562   3.3884   3.3963   3.4069   3.4221   3.4370   3.4547
  3.4886   3.5012   3.5305   3.5546   3.5695   3.6114   3.6156   3.6298
  3.6497   3.6560   3.6633   3.6952   3.7025   3.7148   3.7484   3.7991
  3.8648   3.8842   3.9148   3.9582   4.0304   4.0469   4.0691   4.1142
  4.1369   4.1634   4.2295   4.2412   4.2991   4.3204   4.3458   4.3996
  4.4212   4.4590   4.4910   4.5253   4.6970   4.7401   4.7762   4.8351
  4.8548   4.8856   4.9507   4.9554   5.0415   5.1074   5.1435   5.1668
  5.2370   5.3135   5.3226   5.3484   5.3577   5.3641   5.4190   5.4399
  5.4701   5.5132   5.5783   5.5905   5.6179   5.6287   5.6615   5.7145
  5.7452   5.7477   5.8404   5.8869   5.9606   6.0093   6.0146   6.0738
  6.1108   6.1910   6.2967   6.3010   6.3486   6.3567   6.4689   6.5304
  6.6289   6.6560   6.7336   6.7593   6.8083   6.8647   6.8957   6.9797
  7.0057   7.0894   7.1702   7.3154   7.4036   7.4565   7.5154   7.6359
  7.7250  14.8769  23.3622  23.6193  23.9012  44.2237  44.3635  44.5596
 --------------------------------------------------------------
 
          Ground-State Mulliken Net Atomic Charges

     Atom                 Charge (a.u.)
  ----------------------------------------
      1 O                    -0.803185
      2 C                     0.489021
      3 O                    -0.291939
      4 O                    -0.814602
      5 Li                    0.858114
      6 C                     0.335833
      7 C                    -1.188308
      8 H                     0.100720
      9 H                     0.066003
     10 H                     0.148639
     11 H                     0.099704
  ----------------------------------------
  Sum of atomic charges =    -1.000000

  Building new vdw surfaces
         Merz-Kollman RESP Net Atomic Charges

     Atom                 Charge (a.u.)
  ----------------------------------------
      1 O                    -0.755694
      2 C                     0.705633
      3 O                    -0.543232
      4 O                    -0.755694
      5 Li                    0.814544
      6 C                     0.699053
      7 C                    -1.732647
      8 H                    -0.032377
      9 H                    -0.032377
     10 H                     0.316395
     11 H                     0.316395
  ----------------------------------------
  Sum of atomic charges =    -1.000000

  Related Dipole Moment =    10.9880 (X -9.4667 Y -3.3260 Z  4.4782)

 -----------------------------------------------------------------
                    Cartesian Multipole Moments
 -----------------------------------------------------------------
    Charge (ESU x 10^10)
                -4.8032
    Dipole Moment (Debye)
         X      -9.6697      Y      -3.2876      Z       4.6598
       Tot      11.2261
    Quadrupole Moments (Debye-Ang)
        XX     -42.2790     XY     -12.8935     YY     -49.6270
        XZ     -10.5548     YZ       0.7375     ZZ     -46.4225
    Octopole Moments (Debye-Ang^2)
       XXX    -130.5189    XXY     -17.0874    XYY     -28.6923
       YYY     -26.1777    XXZ      30.8515    XYZ       2.5272
       YYZ       7.3988    XZZ     -20.3506    YZZ      -4.5080
       ZZZ       8.5430
    Hexadecapole Moments (Debye-Ang^3)
      XXXX    -663.4772   XXXY    -150.6148   XXYY    -167.9014
      XYYY    -102.9095   YYYY    -200.6766   XXXZ     -88.0948
      XXYZ       0.6453   XYYZ       8.1626   YYYZ      -0.5164
      XXZZ    -123.6671   XYZZ     -33.1975   YYZZ     -60.2235
      XZZZ       4.4383   YZZZ      -6.8502   ZZZZ    -169.4861
 -----------------------------------------------------------------
 Calculating analytic gradient of the SCF energy
 Gradient of CDS energy
            1           2           3           4           5           6
    1  -0.0001143  -0.0000036   0.0007498  -0.0005303  -0.0000347   0.0002664
    2   0.0001034  -0.0005148   0.0002497   0.0001007  -0.0000065  -0.0013768
    3   0.0001466  -0.0002894   0.0000519   0.0001987   0.0000218   0.0001615
            7           8           9          10          11
    1   0.0005671  -0.0004281  -0.0002897  -0.0001710  -0.0000116
    2   0.0014608   0.0002751   0.0001151  -0.0001916  -0.0002150
    3  -0.0000408  -0.0000460  -0.0001589   0.0001222  -0.0001676
 Gradient of SCF Energy
            1           2           3           4           5           6
    1   0.0027738   0.0224464  -0.0397151   0.0082701  -0.0115157   0.0567523
    2   0.0004274   0.0165705  -0.0009071   0.0000348  -0.0004874  -0.0610506
    3  -0.0055030  -0.0140366  -0.0020056  -0.0000574   0.0055600   0.0304044
            7           8           9          10          11
    1   0.0882290   0.0006077  -0.0210420  -0.0775937  -0.0292128
    2   0.0366575   0.0117024   0.0243611  -0.0040443  -0.0232643
    3   0.0423652  -0.0317754   0.0249693   0.0268269  -0.0767478
 Max gradient component =       8.823E-02
 RMS gradient           =       3.414E-02
 Computing fast CPCM-SWIG gradient
 Updating gradient with PCM contributions...
 -- total gradient after adding PCM contribution --
---------------------------------------------------
  Atom         X              Y              Z     
---------------------------------------------------
   1       0.000234      -0.000038       0.000212
   2       0.000026       0.000094      -0.000265
   3      -0.000426      -0.000225       0.000085
   4      -0.000138       0.000001      -0.000071
   5      -0.000030      -0.000019      -0.000062
   6       0.000504       0.000283       0.000243
   7      -0.000179      -0.000103      -0.000104
   8       0.000006       0.000018      -0.000043
   9      -0.000043       0.000008      -0.000028
  10       0.000041      -0.000017       0.000049
  11       0.000004      -0.000001      -0.000016
---------------------------------------------------
 Number of fixed atoms: 0
 Gradient time:  CPU 317.52 s  wall 14.36 s
 ----------------------------------------------------------------
             Standard Nuclear Orientation (Angstroms)
    I     Atom           X                Y                Z
 ----------------------------------------------------------------
    1      O      -0.6486427742     0.0451255314     1.1759171873
    2      C      -0.6654528561    -0.2666716788    -0.0616205134
    3      O       0.4346164379    -0.5211121279    -0.7333781076
    4      O      -1.7780990448    -0.3548391483    -0.6856968353
    5      Li     -2.4968064413     0.1498961019     0.9551913255
    6      C       1.8207481624    -0.1583613240    -0.0393167322
    7      C       2.2240280939     1.2262215839    -0.1247103681
    8      H       1.6582560157    -0.5527481178     0.9645954778
    9      H       2.4399273726    -0.8503755560    -0.6161559382
   10      H       3.0396900039     1.4752155957    -0.8042605300
   11      H       2.1736771143     1.8319329392     0.7806261837
 ----------------------------------------------------------------
 Nuclear Repulsion Energy =         252.12928727 hartrees
 There are       25 alpha and       25 beta electrons
 Discretize the solute cavity surface with Lebedev spheres
	Using 110 Lebedev grid points for each H atom
	Using 194 Lebedev grid points for other atoms
	Atomic van der Waals radii will be scaled by 1.20
 Remove points where switching function is < 1.0e-08
 Keep 818 surface tesserae and discard 980 interior tesserae
 Molecular Surface Area = 158.133 Angst**2

                       Distance Matrix (Angstroms)
             O (  1)   C (  2)   O (  3)   O (  4)   Li(  5)   C (  6)
   C (  2)  1.276323
   O (  3)  2.267043  1.313831
   O (  4)  2.213877  1.278760  2.219466
   Li(  5)  1.864244  2.135718  3.448878  1.861132
   C (  6)  2.759727  2.488659  1.592065  3.661709  4.441323
   C (  7)  3.367322  3.252970  2.574033  4.339525  4.960942  1.444644
   H (  8)  2.392466  2.556283  2.093182  3.817220  4.214065  1.090772
   H (  9)  3.681401  3.208053  2.035541  4.247604  5.276459  1.093165
   H ( 10)  4.423806  4.160982  3.282797  5.155022  5.958602  2.177047
   H ( 11)  3.363692  3.629625  3.294444  4.748538  4.967206  2.181315
             C (  7)   H (  8)   H (  9)   H ( 10)
   H (  8)  2.161346
   H (  9)  2.144851  1.788398
   H ( 10)  1.090454  3.024872  2.409040
   H ( 11)  1.090438  2.446673  3.035897  1.840949
 
 Requested basis set is def2-TZVPPD
 There are 119 shells and 321 basis functions
 A cutoff of  1.0D-14 yielded   6765 shell pairs
 There are     49983 function pairs (     63653 Cartesian)
 Smallest overlap matrix eigenvalue = 1.11E-05
 Guess MOs from SCF MO coefficient file

 -----------------------------------------------------------------------
  General SCF calculation program by
  Eric Jon Sundstrom, Paul Horn, Yuezhi Mao, Dmitri Zuev, Alec White,
  David Stuck, Shaama M.S., Shane Yost, Joonho Lee, David Small,
  Daniel Levine, Susi Lehtola, Hugh Burton, Evgeny Epifanovsky
 -----------------------------------------------------------------------
 Exchange:     0.1670 Hartree-Fock + 1.0000 wB97X-V + LR-HF
 Correlation:  1.0000 wB97X-V
 Using SG-3 standard quadrature grid
 Nonlocal Correlation:  VV10 with C = 0.0100 and b = 6.00 and scale = 1.00000
 Grid used for NLC:  SG-1 standard quadrature
 
 Citation of the SMD model:
 Marenich, A.V.; Cramer, C.J.; Truhlar, D.G.
 J. Phys. Chem. B 2009, 113, 6378-6396.
 iSolventCode=           0
 Solvent: other                                                           
 
 vradii
            1           2           3           4           5           6
    1   2.2940000   1.8500000   2.2940000   2.2940000   2.1476001   1.8500000
            7           8           9          10          11
    1   1.8500000   1.2000000   1.2000000   1.2000000   1.2000000
 using 32 threads for integral computing
 -------------------------------------------------------
 OpenMP Integral computing Module                
 Release: version 1.0, May 2013, Q-Chem Inc. Pittsburgh 
 -------------------------------------------------------
 using 32 threads for integral computing
 -------------------------------------------------------
 OpenMP Integral computing Module                
 Release: version 1.0, May 2013, Q-Chem Inc. Pittsburgh 
 -------------------------------------------------------
 -------------------------------------------------------
 OpenMP BLAS3 based DFT computing Module                
 Release: version 1.0, May 2013, Q-Chem Inc. Pittsburgh 
 -------------------------------------------------------
 -------------------------------------------------------
 OpenMP BLAS3 based DFT computing Module                
 Release: version 1.0, May 2013, Q-Chem Inc. Pittsburgh 
 -------------------------------------------------------
 -------------------------------------------------------
 OpenMP BLAS3 based DFT computing Module                
 Release: version 1.0, May 2013, Q-Chem Inc. Pittsburgh 
 -------------------------------------------------------
 A restricted SCF calculation will be
 performed using Roothaan-Hall, DIIS
 SCF converges when DIIS error is below 1.0e-08
 ---------------------------------------
  Cycle       Energy         DIIS error
 ---------------------------------------
    1    -350.0966917484      1.08e-05  Roothaan Step
 ---------------------------------------
  Cycle       Energy         DIIS error
 ---------------------------------------
    1    -350.0971271847      2.83e-06  
    2    -350.0971272299      2.84e-06  
    3    -350.0971272977      5.48e-07  
    4    -350.0971273024      1.04e-07  
    5    -350.0971273025      4.04e-08  
    6    -350.0971273026      1.32e-08  
    7    -350.0971273026      5.25e-09  Convergence criterion met
 ---------------------------------------
 SCF time:   CPU 836.47s  wall 31.00s 
(3)  G-ENP(liq) elect-nuc-pol free energy of system     -350.097127303 a.u.
(4)  G-CDS(liq) cavity-dispersion-solvent structure 
     free energy                                               -1.7245 kcal/mol
(6)  G-S(liq) free energy of system                     -350.099875423 a.u.
 SCF   energy in the final basis set =     -350.0971273026
 Total energy in the final basis set =     -350.0998754234
 
 --------------------------------------------------------------
 
                    Orbital Energies (a.u.)
 --------------------------------------------------------------
 
 Alpha MOs
 -- Occupied --
-19.1793 -19.1410 -19.1379 -10.3750 -10.2698 -10.1646  -2.0662  -1.1878
 -1.0804  -1.0480  -0.8246  -0.6812  -0.6000  -0.5581  -0.5451  -0.5338
 -0.4991  -0.4594  -0.4248  -0.3981  -0.3819  -0.3593  -0.3482  -0.3366
 -0.2209
 -- Virtual --
  0.0390   0.0552   0.0560   0.0645   0.1008   0.1118   0.1206   0.1274
  0.1431   0.1472   0.1524   0.1547   0.1625   0.1689   0.1734   0.1799
  0.1890   0.1986   0.2098   0.2214   0.2249   0.2376   0.2513   0.2610
  0.2668   0.2768   0.2918   0.3018   0.3062   0.3123   0.3298   0.3345
  0.3483   0.3599   0.3659   0.3743   0.3755   0.3872   0.4006   0.4055
  0.4099   0.4169   0.4301   0.4315   0.4371   0.4423   0.4431   0.4519
  0.4659   0.4755   0.4797   0.4879   0.4959   0.4984   0.5054   0.5174
  0.5237   0.5336   0.5403   0.5462   0.5498   0.5685   0.5750   0.5881
  0.5916   0.6016   0.6085   0.6165   0.6222   0.6423   0.6495   0.6722
  0.6804   0.6925   0.7049   0.7140   0.7203   0.7331   0.7428   0.7583
  0.7689   0.7926   0.7957   0.8135   0.8193   0.8274   0.8404   0.8532
  0.8613   0.8682   0.8737   0.8970   0.9075   0.9187   0.9250   0.9362
  0.9826   0.9891   1.0123   1.0284   1.0303   1.0453   1.0658   1.0761
  1.0987   1.1115   1.1297   1.1582   1.1899   1.2165   1.2251   1.2476
  1.2677   1.2705   1.2908   1.3020   1.3162   1.3363   1.3508   1.3669
  1.3767   1.3964   1.4289   1.4614   1.4914   1.4942   1.5200   1.5638
  1.5658   1.5907   1.6167   1.6566   1.6756   1.7399   1.7547   1.8014
  1.8145   1.8621   1.8892   1.9227   1.9289   1.9557   1.9711   1.9797
  1.9907   2.0138   2.0594   2.0744   2.1239   2.1371   2.1966   2.2154
  2.2449   2.3101   2.3224   2.3636   2.3966   2.4437   2.4690   2.4905
  2.5251   2.5555   2.6295   2.6475   2.7557   2.8173   2.8427   2.8797
  2.9103   2.9475   2.9571   2.9920   3.0112   3.0231   3.0558   3.0798
  3.0964   3.1228   3.1930   3.2389   3.2441   3.2748   3.3001   3.3206
  3.3454   3.3562   3.3884   3.3963   3.4067   3.4221   3.4369   3.4546
  3.4884   3.5011   3.5304   3.5546   3.5698   3.6115   3.6153   3.6296
  3.6497   3.6561   3.6633   3.6953   3.7026   3.7148   3.7482   3.7991
  3.8648   3.8841   3.9147   3.9581   4.0304   4.0468   4.0690   4.1141
  4.1370   4.1634   4.2295   4.2412   4.2990   4.3204   4.3458   4.3995
  4.4211   4.4589   4.4909   4.5252   4.6967   4.7400   4.7764   4.8349
  4.8546   4.8856   4.9508   4.9554   5.0415   5.1074   5.1435   5.1668
  5.2370   5.3136   5.3225   5.3483   5.3576   5.3640   5.4190   5.4397
  5.4700   5.5134   5.5782   5.5904   5.6177   5.6287   5.6617   5.7139
  5.7450   5.7476   5.8403   5.8870   5.9617   6.0092   6.0145   6.0737
  6.1113   6.1909   6.2968   6.3007   6.3491   6.3572   6.4690   6.5301
  6.6291   6.6561   6.7335   6.7601   6.8081   6.8649   6.8956   6.9800
  7.0056   7.0894   7.1699   7.3157   7.4035   7.4565   7.5152   7.6360
  7.7250  14.8785  23.3619  23.6192  23.9012  44.2237  44.3636  44.5595
 --------------------------------------------------------------
 
          Ground-State Mulliken Net Atomic Charges

     Atom                 Charge (a.u.)
  ----------------------------------------
      1 O                    -0.803292
      2 C                     0.489169
      3 O                    -0.291602
      4 O                    -0.814898
      5 Li                    0.857993
      6 C                     0.335698
      7 C                    -1.188339
      8 H                     0.100875
      9 H                     0.065905
     10 H                     0.148628
     11 H                     0.099865
  ----------------------------------------
  Sum of atomic charges =    -1.000000

  Building new vdw surfaces
         Merz-Kollman RESP Net Atomic Charges

     Atom                 Charge (a.u.)
  ----------------------------------------
      1 O                    -0.756387
      2 C                     0.706401
      3 O                    -0.543016
      4 O                    -0.756387
      5 Li                    0.814919
      6 C                     0.698808
      7 C                    -1.732499
      8 H                    -0.032323
      9 H                    -0.032323
     10 H                     0.316404
     11 H                     0.316404
  ----------------------------------------
  Sum of atomic charges =    -1.000000

  Related Dipole Moment =    10.9792 (X -9.4572 Y -3.3254 Z  4.4774)

 -----------------------------------------------------------------
                    Cartesian Multipole Moments
 -----------------------------------------------------------------
    Charge (ESU x 10^10)
                -4.8032
    Dipole Moment (Debye)
         X      -9.6595      Y      -3.2872      Z       4.6588
       Tot      11.2167
    Quadrupole Moments (Debye-Ang)
        XX     -42.2847     XY     -12.8931     YY     -49.6235
        XZ     -10.5525     YZ       0.7370     ZZ     -46.4230
    Octopole Moments (Debye-Ang^2)
       XXX    -130.4400    XXY     -17.0814    XYY     -28.6721
       YYY     -26.1718    XXZ      30.8453    XYZ       2.5284
       YYZ       7.3979    XZZ     -20.3237    YZZ      -4.5068
       ZZZ       8.5420
    Hexadecapole Moments (Debye-Ang^3)
      XXXX    -663.5356   XXXY    -150.6020   XXYY    -167.9009
      XYYY    -102.8992   YYYY    -200.6539   XXXZ     -88.0591
      XXYZ       0.6420   XYYZ       8.1711   YYYZ      -0.5190
      XXZZ    -123.6914   XYZZ     -33.1986   YYZZ     -60.2188
      XZZZ       4.4686   YZZZ      -6.8511   ZZZZ    -169.4850
 -----------------------------------------------------------------
 Calculating analytic gradient of the SCF energy
 Gradient of CDS energy
            1           2           3           4           5           6
    1  -0.0001160  -0.0000027   0.0007498  -0.0005303  -0.0000344   0.0002663
    2   0.0001033  -0.0005147   0.0002497   0.0001007  -0.0000065  -0.0013768
    3   0.0001461  -0.0002890   0.0000519   0.0001987   0.0000221   0.0001617
            7           8           9          10          11
    1   0.0005675  -0.0004279  -0.0002897  -0.0001710  -0.0000116
    2   0.0014608   0.0002750   0.0001151  -0.0001916  -0.0002150
    3  -0.0000410  -0.0000462  -0.0001589   0.0001222  -0.0001676
 Gradient of SCF Energy
            1           2           3           4           5           6
    1   0.0022662   0.0228111  -0.0396953   0.0082807  -0.0113807   0.0567677
    2   0.0004114   0.0165982  -0.0009688   0.0000779  -0.0004881  -0.0610405
    3  -0.0056495  -0.0139333  -0.0021504   0.0001358   0.0055961   0.0303770
            7           8           9          10          11
    1   0.0881486   0.0005935  -0.0210486  -0.0775732  -0.0291698
    2   0.0366689   0.0116989   0.0243508  -0.0040448  -0.0232640
    3   0.0423506  -0.0317792   0.0249474   0.0268150  -0.0767095
 Max gradient component =       8.815E-02
 RMS gradient           =       3.414E-02
 Computing fast CPCM-SWIG gradient
 Updating gradient with PCM contributions...
 -- total gradient after adding PCM contribution --
---------------------------------------------------
  Atom         X              Y              Z     
---------------------------------------------------
   1      -0.000396      -0.000037       0.000078
   2       0.000460       0.000106      -0.000188
   3      -0.000373      -0.000282      -0.000119
   4      -0.000123       0.000059       0.000189
   5       0.000108      -0.000020      -0.000023
   6       0.000475       0.000252       0.000231
   7      -0.000175      -0.000090      -0.000109
   8       0.000013       0.000021      -0.000056
   9      -0.000040       0.000009      -0.000035
  10       0.000045      -0.000017       0.000049
  11       0.000005      -0.000000      -0.000016
---------------------------------------------------
 Number of fixed atoms: 0
 Gradient time:  CPU 316.74 s  wall 14.51 s
 ----------------------------------------------------------------
             Standard Nuclear Orientation (Angstroms)
    I     Atom           X                Y                Z
 ----------------------------------------------------------------
    1      O      -0.6476427742     0.0461255314     1.1759171873
    2      C      -0.6654528561    -0.2666716788    -0.0616205134
    3      O       0.4346164379    -0.5211121279    -0.7333781076
    4      O      -1.7780990448    -0.3548391483    -0.6856968353
    5      Li     -2.4968064413     0.1498961019     0.9551913255
    6      C       1.8207481624    -0.1583613240    -0.0393167322
    7      C       2.2240280939     1.2262215839    -0.1247103681
    8      H       1.6582560157    -0.5527481178     0.9645954778
    9      H       2.4399273726    -0.8503755560    -0.6161559382
   10      H       3.0396900039     1.4752155957    -0.8042605300
   11      H       2.1736771143     1.8319329392     0.7806261837
 ----------------------------------------------------------------
 Nuclear Repulsion Energy =         252.12548399 hartrees
 There are       25 alpha and       25 beta electrons
 Discretize the solute cavity surface with Lebedev spheres
	Using 110 Lebedev grid points for each H atom
	Using 194 Lebedev grid points for other atoms
	Atomic van der Waals radii will be scaled by 1.20
 Remove points where switching function is < 1.0e-08
 Keep 818 surface tesserae and discard 980 interior tesserae
 Molecular Surface Area = 158.135 Angst**2

                       Distance Matrix (Angstroms)
             O (  1)   C (  2)   O (  3)   O (  4)   Li(  5)   C (  6)
   C (  2)  1.276581
   O (  3)  2.266815  1.313831
   O (  4)  2.214568  1.278760  2.219466
   Li(  5)  1.865179  2.135718  3.448878  1.861132
   C (  6)  2.758906  2.488659  1.592065  3.661709  4.441323
   C (  7)  3.366118  3.252970  2.574033  4.339525  4.960942  1.444644
   H (  8)  2.391752  2.556283  2.093182  3.817220  4.214065  1.090772
   H (  9)  3.680806  3.208053  2.035541  4.247604  5.276459  1.093165
   H ( 10)  4.422649  4.160982  3.282797  5.155022  5.958602  2.177047
   H ( 11)  3.362322  3.629625  3.294444  4.748538  4.967206  2.181315
             C (  7)   H (  8)   H (  9)   H ( 10)
   H (  8)  2.161346
   H (  9)  2.144851  1.788398
   H ( 10)  1.090454  3.024872  2.409040
   H ( 11)  1.090438  2.446673  3.035897  1.840949
 
 Requested basis set is def2-TZVPPD
 There are 119 shells and 321 basis functions
 A cutoff of  1.0D-14 yielded   6765 shell pairs
 There are     49983 function pairs (     63653 Cartesian)
 Smallest overlap matrix eigenvalue = 1.11E-05
 Guess MOs from SCF MO coefficient file

 -----------------------------------------------------------------------
  General SCF calculation program by
  Eric Jon Sundstrom, Paul Horn, Yuezhi Mao, Dmitri Zuev, Alec White,
  David Stuck, Shaama M.S., Shane Yost, Joonho Lee, David Small,
  Daniel Levine, Susi Lehtola, Hugh Burton, Evgeny Epifanovsky
 -----------------------------------------------------------------------
 Exchange:     0.1670 Hartree-Fock + 1.0000 wB97X-V + LR-HF
 Correlation:  1.0000 wB97X-V
 Using SG-3 standard quadrature grid
 Nonlocal Correlation:  VV10 with C = 0.0100 and b = 6.00 and scale = 1.00000
 Grid used for NLC:  SG-1 standard quadrature
 
 Citation of the SMD model:
 Marenich, A.V.; Cramer, C.J.; Truhlar, D.G.
 J. Phys. Chem. B 2009, 113, 6378-6396.
 iSolventCode=           0
 Solvent: other                                                           
 
 vradii
            1           2           3           4           5           6
    1   2.2940000   1.8500000   2.2940000   2.2940000   2.1476001   1.8500000
            7           8           9          10          11
    1   1.8500000   1.2000000   1.2000000   1.2000000   1.2000000
 using 32 threads for integral computing
 -------------------------------------------------------
 OpenMP Integral computing Module                
 Release: version 1.0, May 2013, Q-Chem Inc. Pittsburgh 
 -------------------------------------------------------
 using 32 threads for integral computing
 -------------------------------------------------------
 OpenMP Integral computing Module                
 Release: version 1.0, May 2013, Q-Chem Inc. Pittsburgh 
 -------------------------------------------------------
 -------------------------------------------------------
 OpenMP BLAS3 based DFT computing Module                
 Release: version 1.0, May 2013, Q-Chem Inc. Pittsburgh 
 -------------------------------------------------------
 -------------------------------------------------------
 OpenMP BLAS3 based DFT computing Module                
 Release: version 1.0, May 2013, Q-Chem Inc. Pittsburgh 
 -------------------------------------------------------
 -------------------------------------------------------
 OpenMP BLAS3 based DFT computing Module                
 Release: version 1.0, May 2013, Q-Chem Inc. Pittsburgh 
 -------------------------------------------------------
 A restricted SCF calculation will be
 performed using Roothaan-Hall, DIIS
 SCF converges when DIIS error is below 1.0e-08
 ---------------------------------------
  Cycle       Energy         DIIS error
 ---------------------------------------
    1    -350.0973007256      7.74e-06  Roothaan Step
 ---------------------------------------
  Cycle       Energy         DIIS error
 ---------------------------------------
    1    -350.0971276072      1.90e-06  
    2    -350.0971276407      1.84e-06  
    3    -350.0971276699      4.17e-07  
    4    -350.0971276731      8.00e-08  
    5    -350.0971276733      2.77e-08  
    6    -350.0971276733      1.24e-08  
    7    -350.0971276733      5.43e-09  Convergence criterion met
 ---------------------------------------
 SCF time:   CPU 837.11s  wall 31.00s 
(3)  G-ENP(liq) elect-nuc-pol free energy of system     -350.097127673 a.u.
(4)  G-CDS(liq) cavity-dispersion-solvent structure 
     free energy                                               -1.7245 kcal/mol
(6)  G-S(liq) free energy of system                     -350.099875817 a.u.
 SCF   energy in the final basis set =     -350.0971276733
 Total energy in the final basis set =     -350.0998758174
 
 --------------------------------------------------------------
 
                    Orbital Energies (a.u.)
 --------------------------------------------------------------
 
 Alpha MOs
 -- Occupied --
-19.1793 -19.1410 -19.1380 -10.3750 -10.2698 -10.1646  -2.0662  -1.1877
 -1.0803  -1.0480  -0.8246  -0.6812  -0.5999  -0.5581  -0.5451  -0.5337
 -0.4991  -0.4594  -0.4248  -0.3980  -0.3819  -0.3592  -0.3482  -0.3366
 -0.2208
 -- Virtual --
  0.0390   0.0552   0.0560   0.0645   0.1008   0.1118   0.1206   0.1274
  0.1431   0.1472   0.1524   0.1547   0.1625   0.1689   0.1735   0.1799
  0.1890   0.1986   0.2098   0.2214   0.2249   0.2376   0.2513   0.2610
  0.2668   0.2768   0.2919   0.3018   0.3062   0.3124   0.3298   0.3345
  0.3483   0.3599   0.3659   0.3743   0.3755   0.3872   0.4005   0.4055
  0.4099   0.4169   0.4301   0.4315   0.4371   0.4423   0.4431   0.4519
  0.4660   0.4755   0.4797   0.4879   0.4959   0.4984   0.5054   0.5174
  0.5237   0.5336   0.5403   0.5462   0.5497   0.5685   0.5750   0.5881
  0.5916   0.6016   0.6084   0.6165   0.6221   0.6423   0.6495   0.6722
  0.6803   0.6925   0.7049   0.7140   0.7203   0.7331   0.7428   0.7583
  0.7689   0.7926   0.7957   0.8135   0.8193   0.8274   0.8404   0.8532
  0.8612   0.8682   0.8737   0.8970   0.9075   0.9187   0.9249   0.9362
  0.9826   0.9891   1.0124   1.0284   1.0302   1.0453   1.0659   1.0761
  1.0987   1.1115   1.1297   1.1582   1.1898   1.2165   1.2251   1.2476
  1.2677   1.2704   1.2909   1.3020   1.3161   1.3363   1.3508   1.3669
  1.3767   1.3964   1.4289   1.4614   1.4914   1.4942   1.5201   1.5638
  1.5658   1.5907   1.6167   1.6566   1.6756   1.7399   1.7547   1.8014
  1.8145   1.8621   1.8892   1.9227   1.9289   1.9558   1.9710   1.9797
  1.9905   2.0138   2.0595   2.0745   2.1239   2.1368   2.1966   2.2153
  2.2449   2.3099   2.3225   2.3636   2.3967   2.4437   2.4690   2.4904
  2.5252   2.5556   2.6295   2.6475   2.7556   2.8173   2.8428   2.8797
  2.9103   2.9475   2.9571   2.9919   3.0112   3.0231   3.0558   3.0798
  3.0964   3.1228   3.1930   3.2389   3.2442   3.2748   3.3000   3.3206
  3.3455   3.3562   3.3884   3.3963   3.4067   3.4221   3.4369   3.4547
  3.4885   3.5011   3.5304   3.5546   3.5696   3.6114   3.6154   3.6297
  3.6496   3.6561   3.6632   3.6951   3.7025   3.7148   3.7482   3.7990
  3.8648   3.8841   3.9147   3.9581   4.0304   4.0469   4.0691   4.1141
  4.1369   4.1634   4.2293   4.2412   4.2990   4.3204   4.3458   4.3995
  4.4212   4.4590   4.4909   4.5253   4.6969   4.7401   4.7763   4.8350
  4.8547   4.8856   4.9509   4.9554   5.0415   5.1074   5.1435   5.1667
  5.2370   5.3135   5.3226   5.3483   5.3576   5.3641   5.4190   5.4398
  5.4700   5.5133   5.5782   5.5904   5.6178   5.6286   5.6615   5.7140
  5.7450   5.7476   5.8402   5.8869   5.9609   6.0092   6.0145   6.0738
  6.1110   6.1909   6.2967   6.3006   6.3489   6.3568   6.4686   6.5301
  6.6289   6.6560   6.7336   6.7596   6.8081   6.8648   6.8956   6.9798
  7.0056   7.0894   7.1700   7.3157   7.4035   7.4563   7.5151   7.6356
  7.7249  14.8777  23.3621  23.6192  23.9003  44.2236  44.3634  44.5595
 --------------------------------------------------------------
 
          Ground-State Mulliken Net Atomic Charges

     Atom                 Charge (a.u.)
  ----------------------------------------
      1 O                    -0.803346
      2 C                     0.489003
      3 O                    -0.291729
      4 O                    -0.814645
      5 Li                    0.858064
      6 C                     0.335762
      7 C                    -1.188251
      8 H                     0.100819
      9 H                     0.065953
     10 H                     0.148662
     11 H                     0.099708
  ----------------------------------------
  Sum of atomic charges =    -1.000000

  Building new vdw surfaces
         Merz-Kollman RESP Net Atomic Charges

     Atom                 Charge (a.u.)
  ----------------------------------------
      1 O                    -0.755862
      2 C                     0.705396
      3 O                    -0.542754
      4 O                    -0.755862
      5 Li                    0.814698
      6 C                     0.698598
      7 C                    -1.732084
      8 H                    -0.032337
      9 H                    -0.032337
     10 H                     0.316271
     11 H                     0.316271
  ----------------------------------------
  Sum of atomic charges =    -1.000000

  Related Dipole Moment =    10.9837 (X -9.4615 Y -3.3288 Z  4.4767)

 -----------------------------------------------------------------
                    Cartesian Multipole Moments
 -----------------------------------------------------------------
    Charge (ESU x 10^10)
                -4.8032
    Dipole Moment (Debye)
         X      -9.6643      Y      -3.2903      Z       4.6579
       Tot      11.2214
    Quadrupole Moments (Debye-Ang)
        XX     -42.2813     XY     -12.8909     YY     -49.6261
        XZ     -10.5523     YZ       0.7331     ZZ     -46.4229
    Octopole Moments (Debye-Ang^2)
       XXX    -130.4810    XXY     -17.0922    XYY     -28.6804
       YYY     -26.1922    XXZ      30.8457    XYZ       2.5316
       YYZ       7.3971    XZZ     -20.3368    YZZ      -4.5174
       ZZZ       8.5372
    Hexadecapole Moments (Debye-Ang^3)
      XXXX    -663.5021   XXXY    -150.5952   XXYY    -167.9020
      XYYY    -102.8911   YYYY    -200.6693   XXXZ     -88.0701
      XXYZ       0.6326   XYYZ       8.1681   YYYZ      -0.5414
      XXZZ    -123.6785   XYZZ     -33.1911   YYZZ     -60.2224
      XZZZ       4.4577   YZZZ      -6.8772   ZZZZ    -169.4888
 -----------------------------------------------------------------
 Calculating analytic gradient of the SCF energy
 Gradient of CDS energy
            1           2           3           4           5           6
    1  -0.0001151  -0.0000032   0.0007498  -0.0005303  -0.0000346   0.0002664
    2   0.0001032  -0.0005154   0.0002497   0.0001007  -0.0000060  -0.0013768
    3   0.0001477  -0.0002904   0.0000519   0.0001987   0.0000218   0.0001615
            7           8           9          10          11
    1   0.0005671  -0.0004278  -0.0002897  -0.0001710  -0.0000116
    2   0.0014608   0.0002753   0.0001151  -0.0001916  -0.0002150
    3  -0.0000408  -0.0000462  -0.0001589   0.0001222  -0.0001676
 Gradient of SCF Energy
            1           2           3           4           5           6
    1   0.0025242   0.0226254  -0.0396739   0.0082525  -0.0114479   0.0567385
    2   0.0005362   0.0164072  -0.0009122   0.0001067  -0.0004993  -0.0610478
    3  -0.0053515  -0.0141354  -0.0021154   0.0000092   0.0055753   0.0303692
            7           8           9          10          11
    1   0.0882087   0.0006081  -0.0210469  -0.0775751  -0.0292135
    2   0.0366588   0.0117014   0.0243558  -0.0040473  -0.0232594
    3   0.0423770  -0.0317759   0.0249598   0.0268273  -0.0767399
 Max gradient component =       8.821E-02
 RMS gradient           =       3.414E-02
 Computing fast CPCM-SWIG gradient
 Updating gradient with PCM contributions...
 -- total gradient after adding PCM contribution --
---------------------------------------------------
  Atom         X              Y              Z     
---------------------------------------------------
   1      -0.000081       0.000097       0.000382
   2       0.000241      -0.000113      -0.000367
   3      -0.000364      -0.000217      -0.000068
   4      -0.000154       0.000085       0.000017
   5       0.000040      -0.000028      -0.000044
   6       0.000478       0.000257       0.000232
   7      -0.000179      -0.000091      -0.000106
   8       0.000011       0.000020      -0.000049
   9      -0.000041       0.000008      -0.000031
  10       0.000042      -0.000015       0.000049
  11       0.000007      -0.000001      -0.000014
---------------------------------------------------
 Number of fixed atoms: 0
 Gradient time:  CPU 316.93 s  wall 14.48 s
 ----------------------------------------------------------------
             Standard Nuclear Orientation (Angstroms)
    I     Atom           X                Y                Z
 ----------------------------------------------------------------
    1      O      -0.6476427742     0.0441255314     1.1759171873
    2      C      -0.6654528561    -0.2666716788    -0.0616205134
    3      O       0.4346164379    -0.5211121279    -0.7333781076
    4      O      -1.7780990448    -0.3548391483    -0.6856968353
    5      Li     -2.4968064413     0.1498961019     0.9551913255
    6      C       1.8207481624    -0.1583613240    -0.0393167322
    7      C       2.2240280939     1.2262215839    -0.1247103681
    8      H       1.6582560157    -0.5527481178     0.9645954778
    9      H       2.4399273726    -0.8503755560    -0.6161559382
   10      H       3.0396900039     1.4752155957    -0.8042605300
   11      H       2.1736771143     1.8319329392     0.7806261837
 ----------------------------------------------------------------
 Nuclear Repulsion Energy =         252.13738497 hartrees
 There are       25 alpha and       25 beta electrons
 Discretize the solute cavity surface with Lebedev spheres
	Using 110 Lebedev grid points for each H atom
	Using 194 Lebedev grid points for other atoms
	Atomic van der Waals radii will be scaled by 1.20
 Remove points where switching function is < 1.0e-08
 Keep 818 surface tesserae and discard 980 interior tesserae
 Molecular Surface Area = 158.130 Angst**2

                       Distance Matrix (Angstroms)
             O (  1)   C (  2)   O (  3)   O (  4)   Li(  5)   C (  6)
   C (  2)  1.276092
   O (  3)  2.266316  1.313831
   O (  4)  2.214207  1.278760  2.219466
   Li(  5)  1.865292  2.135718  3.448878  1.861132
   C (  6)  2.758758  2.488659  1.592065  3.661709  4.441323
   C (  7)  3.366820  3.252970  2.574033  4.339525  4.960942  1.444644
   H (  8)  2.391252  2.556283  2.093182  3.817220  4.214065  1.090772
   H (  9)  3.680319  3.208053  2.035541  4.247604  5.276459  1.093165
   H ( 10)  4.423296  4.160982  3.282797  5.155022  5.958602  2.177047
   H ( 11)  3.363385  3.629625  3.294444  4.748538  4.967206  2.181315
             C (  7)   H (  8)   H (  9)   H ( 10)
   H (  8)  2.161346
   H (  9)  2.144851  1.788398
   H ( 10)  1.090454  3.024872  2.409040
   H ( 11)  1.090438  2.446673  3.035897  1.840949
 
 Requested basis set is def2-TZVPPD
 There are 119 shells and 321 basis functions
 A cutoff of  1.0D-14 yielded   6765 shell pairs
 There are     49983 function pairs (     63653 Cartesian)
 Smallest overlap matrix eigenvalue = 1.11E-05
 Guess MOs from SCF MO coefficient file

 -----------------------------------------------------------------------
  General SCF calculation program by
  Eric Jon Sundstrom, Paul Horn, Yuezhi Mao, Dmitri Zuev, Alec White,
  David Stuck, Shaama M.S., Shane Yost, Joonho Lee, David Small,
  Daniel Levine, Susi Lehtola, Hugh Burton, Evgeny Epifanovsky
 -----------------------------------------------------------------------
 Exchange:     0.1670 Hartree-Fock + 1.0000 wB97X-V + LR-HF
 Correlation:  1.0000 wB97X-V
 Using SG-3 standard quadrature grid
 Nonlocal Correlation:  VV10 with C = 0.0100 and b = 6.00 and scale = 1.00000
 Grid used for NLC:  SG-1 standard quadrature
 
 Citation of the SMD model:
 Marenich, A.V.; Cramer, C.J.; Truhlar, D.G.
 J. Phys. Chem. B 2009, 113, 6378-6396.
 iSolventCode=           0
 Solvent: other                                                           
 
 vradii
            1           2           3           4           5           6
    1   2.2940000   1.8500000   2.2940000   2.2940000   2.1476001   1.8500000
            7           8           9          10          11
    1   1.8500000   1.2000000   1.2000000   1.2000000   1.2000000
 using 32 threads for integral computing
 -------------------------------------------------------
 OpenMP Integral computing Module                
 Release: version 1.0, May 2013, Q-Chem Inc. Pittsburgh 
 -------------------------------------------------------
 using 32 threads for integral computing
 -------------------------------------------------------
 OpenMP Integral computing Module                
 Release: version 1.0, May 2013, Q-Chem Inc. Pittsburgh 
 -------------------------------------------------------
 -------------------------------------------------------
 OpenMP BLAS3 based DFT computing Module                
 Release: version 1.0, May 2013, Q-Chem Inc. Pittsburgh 
 -------------------------------------------------------
 -------------------------------------------------------
 OpenMP BLAS3 based DFT computing Module                
 Release: version 1.0, May 2013, Q-Chem Inc. Pittsburgh 
 -------------------------------------------------------
 -------------------------------------------------------
 OpenMP BLAS3 based DFT computing Module                
 Release: version 1.0, May 2013, Q-Chem Inc. Pittsburgh 
 -------------------------------------------------------
 A restricted SCF calculation will be
 performed using Roothaan-Hall, DIIS
 SCF converges when DIIS error is below 1.0e-08
 ---------------------------------------
  Cycle       Energy         DIIS error
 ---------------------------------------
    1    -350.0972122291      1.10e-05  Roothaan Step
 ---------------------------------------
  Cycle       Energy         DIIS error
 ---------------------------------------
    1    -350.0971270183      2.07e-06  
    2    -350.0971271177      1.22e-06  
    3    -350.0971271322      8.19e-07  
    4    -350.0971271412      1.27e-07  
    5    -350.0971271410      4.71e-08  
    6    -350.0971271416      2.19e-08  
    7    -350.0971271411      7.10e-09  Convergence criterion met
 ---------------------------------------
 SCF time:   CPU 838.89s  wall 30.00s 
(3)  G-ENP(liq) elect-nuc-pol free energy of system     -350.097127141 a.u.
(4)  G-CDS(liq) cavity-dispersion-solvent structure 
     free energy                                               -1.7247 kcal/mol
(6)  G-S(liq) free energy of system                     -350.099875676 a.u.
 SCF   energy in the final basis set =     -350.0971271411
 Total energy in the final basis set =     -350.0998756757
 
 --------------------------------------------------------------
 
                    Orbital Energies (a.u.)
 --------------------------------------------------------------
 
 Alpha MOs
 -- Occupied --
-19.1793 -19.1410 -19.1379 -10.3750 -10.2697 -10.1646  -2.0663  -1.1878
 -1.0803  -1.0481  -0.8246  -0.6811  -0.5999  -0.5581  -0.5451  -0.5338
 -0.4991  -0.4594  -0.4248  -0.3980  -0.3819  -0.3592  -0.3482  -0.3366
 -0.2208
 -- Virtual --
  0.0390   0.0552   0.0560   0.0645   0.1009   0.1118   0.1206   0.1274
  0.1431   0.1472   0.1524   0.1547   0.1625   0.1689   0.1734   0.1799
  0.1890   0.1987   0.2098   0.2214   0.2249   0.2376   0.2513   0.2610
  0.2668   0.2768   0.2918   0.3018   0.3063   0.3124   0.3298   0.3345
  0.3483   0.3599   0.3659   0.3743   0.3755   0.3872   0.4006   0.4055
  0.4099   0.4169   0.4301   0.4315   0.4372   0.4423   0.4431   0.4519
  0.4659   0.4755   0.4797   0.4879   0.4959   0.4984   0.5053   0.5174
  0.5237   0.5336   0.5403   0.5463   0.5497   0.5685   0.5750   0.5882
  0.5917   0.6015   0.6085   0.6164   0.6222   0.6423   0.6495   0.6722
  0.6804   0.6925   0.7049   0.7140   0.7203   0.7331   0.7428   0.7583
  0.7690   0.7926   0.7957   0.8135   0.8193   0.8274   0.8404   0.8532
  0.8613   0.8682   0.8737   0.8969   0.9074   0.9187   0.9250   0.9361
  0.9826   0.9891   1.0123   1.0284   1.0302   1.0453   1.0658   1.0761
  1.0987   1.1115   1.1297   1.1582   1.1897   1.2166   1.2251   1.2477
  1.2678   1.2705   1.2908   1.3021   1.3162   1.3364   1.3508   1.3670
  1.3767   1.3964   1.4289   1.4614   1.4914   1.4942   1.5201   1.5638
  1.5658   1.5907   1.6168   1.6566   1.6757   1.7400   1.7547   1.8014
  1.8145   1.8622   1.8893   1.9227   1.9289   1.9556   1.9710   1.9798
  1.9905   2.0139   2.0595   2.0744   2.1240   2.1367   2.1968   2.2153
  2.2448   2.3101   2.3226   2.3635   2.3966   2.4437   2.4692   2.4906
  2.5252   2.5556   2.6295   2.6475   2.7557   2.8173   2.8428   2.8797
  2.9104   2.9475   2.9571   2.9920   3.0112   3.0231   3.0559   3.0799
  3.0965   3.1228   3.1931   3.2389   3.2442   3.2748   3.3001   3.3207
  3.3455   3.3562   3.3884   3.3963   3.4070   3.4221   3.4370   3.4546
  3.4885   3.5011   3.5305   3.5546   3.5698   3.6115   3.6155   3.6297
  3.6498   3.6561   3.6634   3.6954   3.7026   3.7148   3.7483   3.7992
  3.8648   3.8842   3.9147   3.9582   4.0305   4.0469   4.0690   4.1141
  4.1370   4.1634   4.2297   4.2412   4.2991   4.3204   4.3458   4.3996
  4.4212   4.4589   4.4909   4.5253   4.6968   4.7401   4.7762   4.8350
  4.8548   4.8856   4.9506   4.9554   5.0415   5.1074   5.1435   5.1668
  5.2370   5.3135   5.3226   5.3484   5.3576   5.3641   5.4190   5.4398
  5.4701   5.5133   5.5783   5.5904   5.6178   5.6288   5.6617   5.7144
  5.7451   5.7477   5.8406   5.8870   5.9614   6.0093   6.0146   6.0738
  6.1110   6.1909   6.2968   6.3011   6.3488   6.3572   6.4693   6.5305
  6.6290   6.6561   6.7336   6.7598   6.8083   6.8648   6.8957   6.9799
  7.0057   7.0894   7.1702   7.3155   7.4036   7.4568   7.5156   7.6362
  7.7250  14.8777  23.3620  23.6192  23.9021  44.2237  44.3636  44.5595
 --------------------------------------------------------------
 
          Ground-State Mulliken Net Atomic Charges

     Atom                 Charge (a.u.)
  ----------------------------------------
      1 O                    -0.803132
      2 C                     0.489186
      3 O                    -0.291811
      4 O                    -0.814854
      5 Li                    0.858043
      6 C                     0.335768
      7 C                    -1.188396
      8 H                     0.100776
      9 H                     0.065955
     10 H                     0.148605
     11 H                     0.099860
  ----------------------------------------
  Sum of atomic charges =    -1.000000

  Building new vdw surfaces
         Merz-Kollman RESP Net Atomic Charges

     Atom                 Charge (a.u.)
  ----------------------------------------
      1 O                    -0.756170
      2 C                     0.706306
      3 O                    -0.543201
      4 O                    -0.756170
      5 Li                    0.814818
      6 C                     0.698638
      7 C                    -1.732953
      8 H                    -0.032181
      9 H                    -0.032181
     10 H                     0.316547
     11 H                     0.316547
  ----------------------------------------
  Sum of atomic charges =    -1.000000

  Related Dipole Moment =    10.9832 (X -9.4621 Y -3.3228 Z  4.4786)

 -----------------------------------------------------------------
                    Cartesian Multipole Moments
 -----------------------------------------------------------------
    Charge (ESU x 10^10)
                -4.8032
    Dipole Moment (Debye)
         X      -9.6649      Y      -3.2845      Z       4.6607
       Tot      11.2214
    Quadrupole Moments (Debye-Ang)
        XX     -42.2824     XY     -12.8957     YY     -49.6243
        XZ     -10.5550     YZ       0.7414     ZZ     -46.4226
    Octopole Moments (Debye-Ang^2)
       XXX    -130.4779    XXY     -17.0766    XYY     -28.6839
       YYY     -26.1572    XXZ      30.8511    XYZ       2.5241
       YYZ       7.3996    XZZ     -20.3376    YZZ      -4.4974
       ZZZ       8.5478
    Hexadecapole Moments (Debye-Ang^3)
      XXXX    -663.5107   XXXY    -150.6217   XXYY    -167.9003
      XYYY    -102.9176   YYYY    -200.6612   XXXZ     -88.0838
      XXYZ       0.6546   XYYZ       8.1656   YYYZ      -0.4940
      XXZZ    -123.6799   XYZZ     -33.2051   YYZZ     -60.2198
      XZZZ       4.4492   YZZZ      -6.8242   ZZZZ    -169.4822
 -----------------------------------------------------------------
 Calculating analytic gradient of the SCF energy
 Gradient of CDS energy
            1           2           3           4           5           6
    1  -0.0001152  -0.0000031   0.0007498  -0.0005303  -0.0000346   0.0002663
    2   0.0001034  -0.0005141   0.0002497   0.0001007  -0.0000070  -0.0013768
    3   0.0001450  -0.0002880   0.0000519   0.0001987   0.0000221   0.0001616
            7           8           9          10          11
    1   0.0005675  -0.0004282  -0.0002897  -0.0001710  -0.0000116
    2   0.0014608   0.0002749   0.0001151  -0.0001916  -0.0002150
    3  -0.0000410  -0.0000461  -0.0001589   0.0001222  -0.0001676
 Gradient of SCF Energy
            1           2           3           4           5           6
    1   0.0025162   0.0226322  -0.0397364   0.0082982  -0.0114491   0.0567817
    2   0.0003029   0.0167613  -0.0009637   0.0000059  -0.0004761  -0.0610433
    3  -0.0058011  -0.0138341  -0.0020406   0.0000690   0.0055807   0.0304122
            7           8           9          10          11
    1   0.0881687   0.0005931  -0.0210437  -0.0775918  -0.0291691
    2   0.0366676   0.0117000   0.0243561  -0.0040418  -0.0232689
    3   0.0423388  -0.0317788   0.0249569   0.0268146  -0.0767175
 Max gradient component =       8.817E-02
 RMS gradient           =       3.414E-02
 Computing fast CPCM-SWIG gradient
 Updating gradient with PCM contributions...
 -- total gradient after adding PCM contribution --
---------------------------------------------------
  Atom         X              Y              Z     
---------------------------------------------------
   1      -0.000080      -0.000171      -0.000092
   2       0.000244       0.000312      -0.000085
   3      -0.000435      -0.000290       0.000034
   4      -0.000106      -0.000025       0.000102
   5       0.000038      -0.000011      -0.000041
   6       0.000502       0.000278       0.000241
   7      -0.000174      -0.000102      -0.000108
   8       0.000008       0.000019      -0.000049
   9      -0.000042       0.000009      -0.000032
  10       0.000044      -0.000018       0.000049
  11       0.000002      -0.000000      -0.000018
---------------------------------------------------
 Number of fixed atoms: 0
 Gradient time:  CPU 317.87 s  wall 14.46 s
 ----------------------------------------------------------------
             Standard Nuclear Orientation (Angstroms)
    I     Atom           X                Y                Z
 ----------------------------------------------------------------
    1      O      -0.6476427742     0.0451255314     1.1769171873
    2      C      -0.6654528561    -0.2666716788    -0.0616205134
    3      O       0.4346164379    -0.5211121279    -0.7333781076
    4      O      -1.7780990448    -0.3548391483    -0.6856968353
    5      Li     -2.4968064413     0.1498961019     0.9551913255
    6      C       1.8207481624    -0.1583613240    -0.0393167322
    7      C       2.2240280939     1.2262215839    -0.1247103681
    8      H       1.6582560157    -0.5527481178     0.9645954778
    9      H       2.4399273726    -0.8503755560    -0.6161559382
   10      H       3.0396900039     1.4752155957    -0.8042605300
   11      H       2.1736771143     1.8319329392     0.7806261837
 ----------------------------------------------------------------
 Nuclear Repulsion Energy =         252.10185246 hartrees
 There are       25 alpha and       25 beta electrons
 Discretize the solute cavity surface with Lebedev spheres
	Using 110 Lebedev grid points for each H atom
	Using 194 Lebedev grid points for other atoms
	Atomic van der Waals radii will be scaled by 1.20
 Remove points where switching function is < 1.0e-08
 Keep 818 surface tesserae and discard 980 interior tesserae
 Molecular Surface Area = 158.141 Angst**2

                       Distance Matrix (Angstroms)
[...]
 Calculating analytic gradient of the SCF energy
 Gradient of CDS energy
            1           2           3           4           5           6
    1  -0.0001125  -0.0000543   0.0007618  -0.0005133  -0.0000341   0.0002712
    2   0.0001106  -0.0005348   0.0002837   0.0000996  -0.0000083  -0.0014418
    3   0.0001353  -0.0002647   0.0000364   0.0002028   0.0000215   0.0001607
            7           8           9          10          11
    1   0.0005638  -0.0004210  -0.0002576  -0.0001626  -0.0000415
    2   0.0015207   0.0003140   0.0001355  -0.0002280  -0.0002512
    3  -0.0000828  -0.0000124  -0.0001670   0.0000915  -0.0001212
 Gradient of SCF Energy
            1           2           3           4           5           6
    1   0.0027606   0.0226619  -0.0376464   0.0085559  -0.0116631   0.0445858
    2   0.0009714   0.0186877   0.0005811   0.0008089  -0.0008820  -0.0746119
    3  -0.0047932  -0.0152239  -0.0012443   0.0004171   0.0056186   0.0251230
            7           8           9          10          11
    1   0.1171032   0.0002881  -0.0189231  -0.0936962  -0.0340267
    2   0.0298298   0.0110157   0.0228180   0.0072671  -0.0164859
    3   0.0603712  -0.0297782   0.0246313   0.0186197  -0.0837412
 Max gradient component =       1.171E-01
 RMS gradient           =       3.867E-02
 Computing fast CPCM-SWIG gradient
 Updating gradient with PCM contributions...
 -- total gradient after adding PCM contribution --
---------------------------------------------------
  Atom         X              Y              Z     
---------------------------------------------------
   1      -0.000318       0.000391       0.002001
   2       0.001286      -0.000783      -0.003153
   3       0.000544       0.000648       0.000862
   4      -0.001517       0.000293       0.000349
   5      -0.000051      -0.000018       0.000004
   6       0.000148      -0.001138       0.000642
   7      -0.001252      -0.002980       0.000445
   8      -0.000054       0.000096      -0.000696
   9      -0.000181       0.000005       0.000118
  10       0.001960       0.001358      -0.002303
  11      -0.000566       0.002127       0.001730
---------------------------------------------------
 Number of fixed atoms: 0
 Gradient time:  CPU 318.19 s  wall 14.48 s
rPathMan2.  file_steps = 952
 IRC --- Status = 3.  Assess initial corrector step
 IRC --- bisector search: b =  0.000000 E =     -350.100149 G.B =  -0.003889
 IRC --- bisector search: b =  0.024729 E =     -350.100124 G.B =   0.005879
 IRC --- performed gradient/energy interpolation
 IRC --- bisector search:  estimate b(min) =   9.809360372072137E-003
 ----------------------------------------------------------------
             Standard Nuclear Orientation (Angstroms)
    I     Atom           X                Y                Z
 ----------------------------------------------------------------
    1      O      -0.6436500095     0.0482952908     1.1805073308
    2      C      -0.6591087640    -0.2641551452    -0.0540107493
    3      O       0.4485100406    -0.5193664128    -0.7243684845
    4      O      -1.7619530870    -0.3591952771    -0.6876345003
    5      Li     -2.4973579232     0.1496564807     0.9520230183
    6      C       1.7907835672    -0.1586083190    -0.0539970299
    7      C       2.1760714839     1.2519044906    -0.1555609273
    8      H       1.6639845869    -0.5448409740     0.9599882576
    9      H       2.4382642715    -0.8406109525    -0.6135482313
   10      H       3.0527705928     1.4524433431    -0.7772829440
   11      H       2.1942904141     1.8087852569     0.7847802755
 ----------------------------------------------------------------
 Nuclear Repulsion Energy =         253.08732516 hartrees
 There are       25 alpha and       25 beta electrons
 Discretize the solute cavity surface with Lebedev spheres
	Using 110 Lebedev grid points for each H atom
	Using 194 Lebedev grid points for other atoms
	Atomic van der Waals radii will be scaled by 1.20
 Remove points where switching function is < 1.0e-08
 Keep 815 surface tesserae and discard 983 interior tesserae
 Molecular Surface Area = 157.764 Angst**2

                       Distance Matrix (Angstroms)
             O (  1)   C (  2)   O (  3)   O (  4)   Li(  5)   C (  6)
   C (  2)  1.273538
   O (  3)  2.267952  1.319595
   O (  4)  2.215086  1.275452  2.216563
   Li(  5)  1.870484  2.136002  3.454854  1.867680
   C (  6)  2.737385  2.452165  1.543128  3.614370  4.415344
   C (  7)  3.344336  3.216675  2.538781  4.287981  4.927741  1.465711
   H (  8)  2.392826  2.550243  2.077278  3.806071  4.218905  1.092438
   H (  9)  3.675185  3.199860  2.018564  4.228366  5.271813  1.094284
   H ( 10)  4.412267  4.153057  3.266957  5.145059  5.957489  2.170539
   H ( 11)  3.363009  3.625264  3.278044  4.745525  4.979181  2.176466
             C (  7)   H (  8)   H (  9)   H ( 10)
   H (  8)  2.176000
   H (  9)  2.158036  1.778484
   H ( 10)  1.093323  2.989311  2.379606
   H ( 11)  1.093019  2.418983  3.005686  1.817693
 
 Applying Cartesian multipole field
    Component          Value
    ---------          -----
     (2,0,0)        1.00000E-11
     (0,2,0)        2.00000E-11
     (0,0,2)       -3.00000E-11
 Nucleus-field energy     =     0.0000000031 hartrees
 Requested basis set is def2-TZVPPD
 There are 119 shells and 321 basis functions
 A cutoff of  1.0D-14 yielded   6770 shell pairs
 There are     50082 function pairs (     63823 Cartesian)
 Smallest overlap matrix eigenvalue = 1.17E-05
 Guess MOs from SCF MO coefficient file

 -----------------------------------------------------------------------
  General SCF calculation program by
  Eric Jon Sundstrom, Paul Horn, Yuezhi Mao, Dmitri Zuev, Alec White,
  David Stuck, Shaama M.S., Shane Yost, Joonho Lee, David Small,
  Daniel Levine, Susi Lehtola, Hugh Burton, Evgeny Epifanovsky
 -----------------------------------------------------------------------
 Exchange:     0.1670 Hartree-Fock + 1.0000 wB97X-V + LR-HF
 Correlation:  1.0000 wB97X-V
 Using SG-3 standard quadrature grid
 Nonlocal Correlation:  VV10 with C = 0.0100 and b = 6.00 and scale = 1.00000
 Grid used for NLC:  SG-1 standard quadrature
 
 Citation of the SMD model:
 Marenich, A.V.; Cramer, C.J.; Truhlar, D.G.
 J. Phys. Chem. B 2009, 113, 6378-6396.
 iSolventCode=           0
 Solvent: other                                                           
 
 vradii
            1           2           3           4           5           6
    1   2.2940000   1.8500000   2.2940000   2.2940000   2.1476001   1.8500000
            7           8           9          10          11
    1   1.8500000   1.2000000   1.2000000   1.2000000   1.2000000
 using 32 threads for integral computing
 -------------------------------------------------------
 OpenMP Integral computing Module                
 Release: version 1.0, May 2013, Q-Chem Inc. Pittsburgh 
 -------------------------------------------------------
 using 32 threads for integral computing
 -------------------------------------------------------
 OpenMP Integral computing Module                
 Release: version 1.0, May 2013, Q-Chem Inc. Pittsburgh 
 -------------------------------------------------------
 -------------------------------------------------------
 OpenMP BLAS3 based DFT computing Module                
 Release: version 1.0, May 2013, Q-Chem Inc. Pittsburgh 
 -------------------------------------------------------
 -------------------------------------------------------
 OpenMP BLAS3 based DFT computing Module                
 Release: version 1.0, May 2013, Q-Chem Inc. Pittsburgh 
 -------------------------------------------------------
 -------------------------------------------------------
 OpenMP BLAS3 based DFT computing Module                
 Release: version 1.0, May 2013, Q-Chem Inc. Pittsburgh 
 -------------------------------------------------------
 A restricted SCF calculation will be
 performed using Roothaan-Hall, DIIS
 SCF converges when DIIS error is below 1.0e-08
 ---------------------------------------
  Cycle       Energy         DIIS error
 ---------------------------------------
    1    -350.1243389219      1.65e-04  Roothaan Step
 ---------------------------------------
  Cycle       Energy         DIIS error
 ---------------------------------------
    1    -350.0969559584      1.30e-04  
    2    -350.0973719112      5.34e-05  
    3    -350.0974201670      3.22e-05  
    4    -350.0974379454      1.33e-05  
    5    -350.0974424718      5.99e-06  
    6    -350.0974437319      2.11e-06  
    7    -350.0974440733      8.09e-07  
    8    -350.0974441133      4.53e-07  
    9    -350.0974441218      1.17e-07  
   10    -350.0974441228      6.32e-08  
   11    -350.0974441230      3.20e-08  
   12    -350.0974441230      7.45e-09  Convergence criterion met
 ---------------------------------------
 SCF time:   CPU 1367.29s  wall 51.00s 
(3)  G-ENP(liq) elect-nuc-pol free energy of system     -350.097444123 a.u.
(4)  G-CDS(liq) cavity-dispersion-solvent structure 
     free energy                                               -1.7091 kcal/mol
(6)  G-S(liq) free energy of system                     -350.100167733 a.u.
 SCF   energy in the final basis set =     -350.0974441230
 Total energy in the final basis set =     -350.1001677335
 
 --------------------------------------------------------------
 
                    Orbital Energies (a.u.)
 --------------------------------------------------------------
 
 Alpha MOs
 -- Occupied --
-19.1883 -19.1449 -19.1418 -10.3796 -10.2709 -10.1641  -2.0697  -1.1947
 -1.0898  -1.0535  -0.8241  -0.6870  -0.6038  -0.5624  -0.5513  -0.5377
 -0.4975  -0.4602  -0.4279  -0.3995  -0.3811  -0.3615  -0.3511  -0.3410
 -0.2222
 -- Virtual --
  0.0388   0.0551   0.0560   0.0648   0.1007   0.1125   0.1203   0.1271
  0.1430   0.1477   0.1520   0.1536   0.1622   0.1699   0.1731   0.1798
  0.1897   0.1974   0.2106   0.2210   0.2254   0.2379   0.2528   0.2585
  0.2688   0.2777   0.2906   0.3012   0.3083   0.3166   0.3288   0.3347
  0.3478   0.3577   0.3655   0.3693   0.3745   0.3871   0.3985   0.4051
  0.4126   0.4186   0.4286   0.4309   0.4354   0.4411   0.4437   0.4514
  0.4652   0.4745   0.4776   0.4896   0.4943   0.4977   0.5024   0.5197
  0.5266   0.5329   0.5409   0.5443   0.5528   0.5692   0.5776   0.5871
  0.5942   0.6004   0.6060   0.6128   0.6237   0.6403   0.6496   0.6676
  0.6811   0.6924   0.7098   0.7126   0.7164   0.7332   0.7428   0.7518
  0.7683   0.7854   0.7947   0.8085   0.8146   0.8256   0.8395   0.8514
  0.8604   0.8667   0.8744   0.8886   0.9057   0.9174   0.9257   0.9378
  0.9822   0.9875   1.0138   1.0315   1.0385   1.0514   1.0637   1.0831
  1.0981   1.1122   1.1301   1.1620   1.1877   1.2230   1.2261   1.2520
  1.2619   1.2735   1.2926   1.3011   1.3120   1.3340   1.3511   1.3639
  1.3774   1.3879   1.4258   1.4629   1.4869   1.4945   1.5188   1.5499
  1.5682   1.5893   1.6128   1.6629   1.6884   1.7363   1.7480   1.7864
  1.8148   1.8502   1.8902   1.9277   1.9324   1.9544   1.9712   1.9722
  1.9931   2.0171   2.0570   2.0799   2.1272   2.1455   2.1965   2.2335
  2.2380   2.3118   2.3371   2.3735   2.4108   2.4556   2.4818   2.4974
  2.5359   2.5586   2.6375   2.6632   2.7495   2.8110   2.8595   2.8793
  2.8960   2.9384   2.9706   2.9763   2.9980   3.0253   3.0517   3.0822
  3.1039   3.1261   3.1891   3.2444   3.2475   3.2731   3.2968   3.3189
  3.3392   3.3477   3.3888   3.3950   3.4174   3.4294   3.4456   3.4578
  3.4757   3.4912   3.5275   3.5640   3.5738   3.6145   3.6169   3.6328
  3.6541   3.6574   3.6869   3.7052   3.7141   3.7260   3.7602   3.7951
  3.8434   3.8650   3.9292   3.9528   3.9852   4.0042   4.0922   4.1204
  4.1657   4.1726   4.2364   4.2546   4.2915   4.3300   4.3505   4.4030
  4.4443   4.4762   4.5054   4.5330   4.6964   4.7236   4.7693   4.8173
  4.8581   4.9085   4.9559   4.9864   5.0667   5.0949   5.1308   5.1673
  5.2635   5.3100   5.3160   5.3427   5.3493   5.3635   5.3771   5.4230
  5.4346   5.5063   5.5597   5.6051   5.6261   5.6379   5.6716   5.7163
  5.7522   5.7559   5.8633   5.8844   5.9387   5.9616   6.0500   6.0743
  6.1070   6.2168   6.2920   6.3004   6.3438   6.3615   6.4743   6.5379
  6.6326   6.6626   6.7321   6.7537   6.8089   6.8665   6.9042   6.9770
  7.0062   7.1051   7.1778   7.3088   7.4069   7.4549   7.5151   7.6481
  7.7408  14.8656  23.3127  23.5652  23.9009  44.2236  44.3642  44.5796
 --------------------------------------------------------------
 
          Ground-State Mulliken Net Atomic Charges

     Atom                 Charge (a.u.)
  ----------------------------------------
      1 O                    -0.796107
      2 C                     0.494962
      3 O                    -0.268258
      4 O                    -0.811518
      5 Li                    0.857489
      6 C                     0.395763
      7 C                    -1.201168
      8 H                     0.092304
      9 H                     0.057004
     10 H                     0.112655
     11 H                     0.066872
  ----------------------------------------
  Sum of atomic charges =    -1.000000

  Building new vdw surfaces
         Merz-Kollman RESP Net Atomic Charges

     Atom                 Charge (a.u.)
  ----------------------------------------
      1 O                    -0.732531
      2 C                     0.660628
      3 O                    -0.539847
      4 O                    -0.732531
      5 Li                    0.816105
      6 C                     0.891680
      7 C                    -1.882019
      8 H                    -0.077560
      9 H                    -0.077560
     10 H                     0.336817
     11 H                     0.336817
  ----------------------------------------
  Sum of atomic charges =    -1.000000

  Related Dipole Moment =    11.4611 (X -9.6206 Y -4.0150 Z  4.7626)

 -----------------------------------------------------------------
                    Cartesian Multipole Moments
 -----------------------------------------------------------------
    Charge (ESU x 10^10)
                -4.8032
    Dipole Moment (Debye)
         X      -9.8016      Y      -4.0156      Z       4.9552
       Tot      11.6940
    Quadrupole Moments (Debye-Ang)
        XX     -40.7163     XY     -13.5844     YY     -51.2714
        XZ      -9.7230     YZ       1.4648     ZZ     -46.5762
    Octopole Moments (Debye-Ang^2)
       XXX    -126.2989    XXY     -17.9531    XYY     -30.9526
       YYY     -31.6145    XXZ      32.9385    XYZ       3.7874
       YYZ       8.8862    XZZ     -20.7928    YZZ      -5.7981
       ZZZ       9.6315
    Hexadecapole Moments (Debye-Ang^3)
      XXXX    -625.6883   XXXY    -149.2074   XXYY    -169.3484
      XYYY    -109.2878   YYYY    -215.2818   XXXZ     -79.1282
      XXYZ       3.9762   XYYZ      11.2157   YYYZ       3.6193
      XXZZ    -121.6803   XYZZ     -34.5384   YYZZ     -62.6549
      XZZZ       7.9942   YZZZ      -4.2798   ZZZZ    -169.9445
 -----------------------------------------------------------------
 Calculating analytic gradient of the SCF energy
 Gradient of CDS energy
            1           2           3           4           5           6
    1  -0.0001122  -0.0000609   0.0007619  -0.0005065  -0.0000340   0.0002751
    2   0.0001087  -0.0005296   0.0002783   0.0000981  -0.0000077  -0.0014333
    3   0.0001262  -0.0002419   0.0000275   0.0001978   0.0000217   0.0001613
            7           8           9          10          11
    1   0.0005698  -0.0004219  -0.0002587  -0.0001703  -0.0000423
    2   0.0015282   0.0003110   0.0001332  -0.0002306  -0.0002564
    3  -0.0000828  -0.0000116  -0.0001672   0.0000966  -0.0001276
 Gradient of SCF Energy
            1           2           3           4           5           6
    1   0.0029902   0.0216072  -0.0383437   0.0097393  -0.0116435   0.0447899
    2   0.0006435   0.0189564   0.0001682   0.0007165  -0.0008430  -0.0731884
    3  -0.0061720  -0.0129234  -0.0020641  -0.0000389   0.0057348   0.0247538
            7           8           9          10          11
    1   0.1205401   0.0004468  -0.0189536  -0.0967138  -0.0344590
    2   0.0310856   0.0106848   0.0224788   0.0069271  -0.0176296
    3   0.0613861  -0.0290984   0.0245971   0.0202490  -0.0864239
 Max gradient component =       1.205E-01
 RMS gradient           =       3.940E-02
 Computing fast CPCM-SWIG gradient
 Updating gradient with PCM contributions...
 -- total gradient after adding PCM contribution --
---------------------------------------------------
  Atom         X              Y              Z     
---------------------------------------------------
   1       0.000003       0.000073       0.000613
   2       0.000166      -0.000219      -0.000587
   3      -0.000582       0.000181      -0.000224
   4      -0.000123       0.000124      -0.000245
   5      -0.000061       0.000006       0.000107
   6       0.001043       0.000528       0.000461
   7       0.000951      -0.000937       0.000760
   8      -0.000128      -0.000427      -0.000079
   9      -0.000166      -0.000371       0.000144
  10      -0.000539       0.000525      -0.000411
  11      -0.000564       0.000517      -0.000539
---------------------------------------------------
 Number of fixed atoms: 0
 Gradient time:  CPU 320.63 s  wall 14.92 s
rPathMan2.  file_steps = 952
 IRC --- Status = 4.  Checking bisector search.
 IRC --- Bisector search finished successfully.
 ------------------------------------------------------------------------
 Reaction path following.  The coordinates are cartesian              
 Step   3 E=    -350.100168 |G|=  0.002696 S_lin= 0.1728 S_tot= 0.1762
 ------------------------------------------------------------------------
  IRC -- convergence criterion reached.
 ----------------------------------------------------------------
             Standard Nuclear Orientation (Angstroms)
    I     Atom           X                Y                Z
 ----------------------------------------------------------------
    1      O      -0.6476427742     0.0451255314     1.1759171873
    2      C      -0.6654528561    -0.2666716788    -0.0616205134
    3      O       0.4346164379    -0.5211121279    -0.7333781076
    4      O      -1.7780990448    -0.3548391483    -0.6856968353
    5      Li     -2.4968064413     0.1498961019     0.9551913255
    6      C       1.8207481624    -0.1583613240    -0.0393167322
    7      C       2.2240280939     1.2262215839    -0.1247103681
    8      H       1.6582560157    -0.5527481178     0.9645954778
    9      H       2.4399273726    -0.8503755560    -0.6161559382
   10      H       3.0396900039     1.4752155957    -0.8042605300
   11      H       2.1736771143     1.8319329392     0.7806261837
 ----------------------------------------------------------------
 Nuclear Repulsion Energy =         252.13144405 hartrees
 There are       25 alpha and       25 beta electrons
 Here is where we should summarize the reaction path
Archival summary:
1\1\nid12919\JobtypUnspecified\ProcedureUnspecified\BasisUnspecified\33i14(1-,1)\ewcss\WedOct217:29:082019WedOct217:29:082019\0\\#,JobtypUnspecified,ProcedureUnspecified,BasisUnspecified,\\-1,1\O\C,1,1.31383\O,2,1.27634,1,122.099\O,2,1.27876,1,117.752,3,-179.234,0\C,1,1.59206,2,117.514,3,-11.5938,0\H,5,1.09077,1,100.903,2,45.291,0\H,5,1.09317,1,96.8267,2,157.19,0\C,5,1.44464,1,115.827,2,-81.1433,0\H,8,1.09044,5,118.061,1,107.842,0\H,8,1.09045,5,117.677,1,-106.714,0\Li,4,1.86113,2,83.5132,1,-179.406,0\\\@

 Total job time:  6301.25s(wall), 161051.60s(cpu) 
 Wed Oct  2 17:29:08 2019

        *************************************************************
        *                                                           *
        *  Thank you very much for using Q-Chem.  Have a nice day.  *
        *                                                           *
        *************************************************************


